LAMMPS data file via write_data, version 27 Jun 2024, timestep = 8640000, units = real

5730 atoms
15 atom types
5471 bonds
16 bond types
5730 angles
15 angle types

-3000 3000 xlo xhi
-1500 1500 ylo yhi
-1500 1500 zlo zhi

Masses

1 241.19
2 73.54000000000001
3 330.71
4 235.16
5 68.06999999999999
6 353.53
7 223.38
8 41.1
9 216.91
10 155.15
11 147.32
12 264.65
13 300.8
14 326.05
15 85.20999999999999

Pair Coeffs # lj/cut/coul/debye/gpu

1 0.71637 40.7505
2 0.665709 48.1397
3 1.15033 39.2216
4 0.726774 43.8077
5 0.514724 53.3428
6 1.17127 41.7847
7 1.2256 38.5601
8 0.675431 54.5696
9 1.26117 43.78
10 0.939007 42.5209
11 0.960667 41.1825
12 1.30988 48.0761
13 1.36645 37.7114
14 1.35529 39.2179
15 0.592003 47.2602

Bond Coeffs # harmonic

1 0.003 59.228
2 0.008 56.48
3 0.001 69.324
4 3.207 42.88
5 0.11 49.807
6 0.002 74.968
7 0.001 91.635
8 0.145 54.383
9 2.709 44.406
10 1.71 61.679
11 1.625 54.051
12 0.207 66.185
13 0.002 64.76
14 0.079 63.886
15 0.2 40
16 0.2 40

Angle Coeffs # harmonic

1 11.427 158.273
2 50.464 132.042
3 8.207 156.514
4 92.705 149.394
5 100 174.44
6 3.15 145.53
7 48.938 159.031
8 17.401 129.945
9 15.735 56.441
10 60 172.254
11 60.285 168.396
12 11.83 99.091
13 150 107.995
14 27.746 149.925
15 7.483 160.775

Atoms # full

1811 121 11 1 -2380.6791527804576 -579.4667106678569 -1428.7290139962147 0 0 0
1809 121 9 0 -2314.5666011994253 -572.0961772062587 -1438.958520159813 0 0 0
1815 121 15 0 -2270.1293694286805 -514.3426160265458 -1447.4451699260585 0 0 0
1802 121 2 0 -2269.0761969768664 -463.1407892089139 -1460.8553580987762 0 0 0
1804 121 4 0 -2247.9597333566817 -425.78806882895327 -1469.191764781115 0 0 0
2589 173 9 0 -1692.8662063535696 -357.1913509575239 -1466.935462669944 0 0 1
2595 173 15 0 -1699.8618692978757 -333.739510418079 -1429.485290149315 0 0 1
968 65 8 0 -2830.852530097463 -257.46923853821113 -1483.485876383617 0 0 0
965 65 5 0 -2759.1785431248672 -278.79124961284725 -1427.7259418510343 0 0 0
2930 196 5 0 -2588.1644703852717 -230.20946136069796 -1466.2231394397454 0 0 0
961 65 1 0 -2855.5640273106283 -201.38129010224017 -1499.8952542372185 0 0 0
1071 72 6 -0.5 -390.1641837370774 -155.54637585776624 -1449.959786622824 0 0 1
1074 72 9 0 -425.6277480288083 -168.56091686062277 -1488.464005213238 0 0 1
655 44 10 1 -231.23094979141547 104.44668119388406 -1432.1748226974262 0 0 0
657 44 12 0 -249.34516745293487 121.31221768382572 -1489.1809430202725 0 0 0
1415 95 5 0 -1664.3616591678028 432.27436509616194 -1425.994939748086 0 0 0
4932 329 12 0 -1845.7757143417866 505.5742269997106 -1484.496149816287 0 0 0
1418 95 8 0 -1674.5744021018631 451.3660283165709 -1477.7910427017375 0 0 0
1058 71 8 0 -630.1314102676091 493.30122011844304 -1470.1524255782915 0 0 0
1051 71 1 0 -583.3501682227496 492.32095457908576 -1485.668169463394 0 0 0
4930 329 10 1 -1860.1814406440856 534.6811681852216 -1426.2406732783732 0 0 0
4480 299 10 1 -2140.0331818281315 973.1638227995159 -1479.7969520550816 0 0 0
4477 299 7 2 -2090.8341869934943 982.1892465806999 -1442.921088798715 0 0 0
4472 299 2 0 -1937.9529536129676 1131.630605058841 -1430.2277399590228 0 0 0
4474 299 4 0 -1930.741370312918 1167.0253529522756 -1489.7114699437536 0 0 0
5626 376 1 0 -1082.7059485654402 1199.3830184785581 -1466.034275982116 0 0 0
5633 376 8 0 -1041.075912834247 1175.643691404938 -1441.0257189744784 0 0 0
2413 161 13 -0.5 -2400.86149997784 1420.0740600241704 -1449.9900656613188 0 -1 0
2403 161 3 -1.5 -2376.9098979073738 1440.9859009540037 -1477.6146727646649 0 -1 0
2412 161 12 0 -2334.1630503685037 1465.525170748952 -1471.862582877831 0 -1 0
2410 161 10 1 -2293.740621122843 1496.973698602101 -1433.6525665457696 0 -1 0
2407 161 7 2 -2248.4014301123107 -1477.7931311896627 -1400.9948109409102 0 0 0
2411 161 11 1 -2208.695863829597 -1449.2940276876855 -1377.7501633708853 0 0 0
2409 161 9 0 -2169.4687130480324 -1405.175942308728 -1352.6452063746738 0 0 0
3779 252 14 -1.5 -1677.9314976132237 -1176.2194445155462 -1419.5850280678944 0 0 0
3771 252 6 -0.5 -1693.6853203798314 -1186.2716442969693 -1378.8761071731433 0 0 0
3616 242 1 0 -338.47594444578374 -1167.1611780691999 -1400.0684225298278 0 0 0
1813 121 13 -0.5 -2617.42759687687 -646.8237123508193 -1378.6121794494886 0 0 0
1803 121 3 -1.5 -2578.087090725556 -642.1974043474122 -1360.7405811299036 0 0 0
1812 121 12 0 -2544.2347044590497 -607.7113601516816 -1359.9762840387996 0 0 0
1805 121 5 0 -2597.4342318960985 -535.9934254636929 -1373.8083088413716 0 0 0
1810 121 10 1 -2488.5886039592824 -593.6381736991888 -1389.389838911241 0 0 0
1807 121 7 2 -2430.2935869714615 -584.2839174089439 -1406.673111256405 0 0 0
1806 121 6 -0.5 -2263.6908480901816 -567.3800473069684 -1423.9485057804268 0 0 0
1814 121 14 -1.5 -2224.4734895975375 -586.2338534348632 -1414.042268646061 0 0 0
2594 173 14 -1.5 -1636.1406978056964 -401.1122494161355 -1402.601967825212 0 0 1
973 65 13 -0.5 -2798.6028961407974 -343.01208938520864 -1362.6486068820277 0 0 0
2586 173 6 -0.5 -1659.5987447587831 -369.5028253742265 -1423.600513590864 0 0 1
2582 173 2 0 -1722.776844580034 -341.18401997505106 -1379.3960050794399 0 0 1
2937 196 12 0 -2570.3264003008244 -225.10467235076118 -1351.907544498568 0 0 0
2927 196 2 0 -2200.0228675745684 -138.45945757247694 -1370.1208438119427 0 0 0
2929 196 4 0 -2167.0321441771757 -116.2914243142243 -1416.9755695399415 0 0 0
1079 72 14 -1.5 -374.9799577942163 -125.4461256047309 -1421.6068574894118 0 0 1
652 44 7 2 -201.5941780414683 89.41767495792762 -1379.4943118938988 0 0 0
1711 115 1 0 -435.3138616046898 209.74742832329198 -1382.7718845682841 0 0 0
1413 95 3 -1.5 -1711.2486547661433 446.3626196627871 -1353.2573753716438 0 0 0
1422 95 12 0 -1661.2357780775942 444.05117643913815 -1351.038305918558 0 0 0
1423 95 13 -0.5 -1739.446757665197 458.84103693100514 -1383.555552324491 0 0 0
1063 71 13 -0.5 -719.7369854009568 517.9212159566174 -1365.3518795062073 0 0 0
1055 71 5 0 -628.2467235858671 513.817712489174 -1415.6171298300835 0 0 0
4927 329 7 2 -1872.71740598146 566.9790028405721 -1374.8197531245967 0 0 0
4481 299 11 1 -2049.5012914468944 985.8214924502033 -1407.586803640503 0 0 0
4479 299 9 0 -2005.4063026705523 993.918577683577 -1359.9780150657282 0 0 0
4085 273 5 0 -1124.0128657772848 1023.8183793607936 -1355.60881368569 0 0 0
4485 299 15 0 -1972.3631996739712 1061.2521402171756 -1366.03615307151 0 0 0
4088 273 8 0 -1201.688711687764 1050.5726673347199 -1392.3478852385765 0 0 0
4081 273 1 0 -1239.7210110727824 1085.7706440618401 -1413.9441806922396 0 0 0
4654 311 4 0 -990.8901332880934 1077.599685366945 -1391.464494559386 0 0 0
4261 285 1 0 -541.1856798232957 1095.7725868348475 -1405.4897692073039 0 0 0
5630 376 5 0 -1001.6790559293654 1138.209750325786 -1389.7496884494567 0 0 0
4231 283 1 0 -2204.0132218271024 1289.016674642138 -1424.8828927613906 0 0 0
4238 283 8 0 -2187.132418068986 1280.6145441000135 -1365.9191339870756 0 0 0
2406 161 6 -0.5 -2124.006276810271 -1390.6665810456795 -1326.6951385945263 0 0 0
2414 161 14 -1.5 -2087.654690783061 -1399.1674855168903 -1303.3817987534992 0 0 0
3620 242 5 0 -374.5214294321336 -1238.474776400016 -1310.227899388451 0 0 0
3776 252 11 1 -1772.4375279338908 -1157.6083332057992 -1298.573676244461 0 0 0
3774 252 9 0 -1727.4161136346472 -1182.980380072432 -1338.3671166710847 0 0 0
3780 252 15 0 -1657.3803316093772 -1148.1186162865995 -1341.9246008724942 0 0 0
3623 242 8 0 -365.3152877464531 -1176.7270746179329 -1342.7912725658675 0 0 0
3767 252 2 0 -1574.6968480722098 -1104.1555212882793 -1311.5467139159186 0 0 0
2661 178 6 -0.5 -44.17370310033055 -851.5341896470104 -1316.7650763460258 0 0 0
2669 178 14 -1.5 -20.397866190457055 -823.8309713592236 -1342.4407356720164 0 0 0
2670 178 15 0 -51.85450488246254 -780.5692407699762 -1294.6128868390397 0 0 0
2657 178 2 0 -33.18945950838849 -734.1748354407656 -1320.0511223966043 0 0 0
2659 178 4 0 -13.713218772151194 -679.6837744697352 -1321.7554292630402 0 0 0
1808 121 8 0 -2661.1796749231667 -494.81514907346224 -1309.740477586991 0 0 0
241 17 1 0 -1114.9227489051673 -440.04224597866425 -1297.3991956874777 0 0 0
963 65 3 -1.5 -2766.8333389647287 -336.9238629724453 -1334.485815983701 0 0 0
972 65 12 0 -2730.6389852470907 -305.7254708242901 -1333.5951020726525 0 0 0
2584 173 4 0 -1715.2220389830077 -355.64571629271614 -1316.9591916696309 0 0 1
970 65 10 1 -2675.2710344275424 -274.0655439093271 -1314.9868288305968 0 0 0
2938 196 13 -0.5 -2631.3278546716165 -285.6642436390903 -1332.774060018604 0 0 0
967 65 7 2 -2617.0433899439327 -254.1574264981956 -1312.3066417639902 0 0 0
2928 196 3 -1.5 -2614.361204011752 -246.01138649553803 -1334.2552760909318 0 0 0
971 65 11 1 -2565.868257250099 -238.18321102388165 -1303.4537358815128 0 0 0
2935 196 10 1 -2505.034831166985 -214.75752536616022 -1341.1277691559173 0 0 0
969 65 9 0 -2508.234272552491 -209.934379899937 -1284.4840073831033 0 0 0
2932 196 7 2 -2447.337890805294 -198.77159715522208 -1327.446851471325 0 0 0
974 65 14 -1.5 -2422.476316710219 -174.8393944493023 -1307.7108966465826 0 0 0
966 65 6 -0.5 -2457.0896571799685 -190.76797751750902 -1285.098414706159 0 0 0
2936 196 11 1 -2397.9893023008203 -189.35157893118486 -1310.3428670465405 0 0 0
2934 196 9 0 -2342.1994100343645 -159.07149323747115 -1288.1159259913015 0 0 0
2940 196 15 0 -2278.1884680117137 -137.62802002761762 -1322.654283542273 0 0 0
3121 209 1 0 -1117.3705187181235 -24.90975966198751 -1294.7333726518768 0 0 0
656 44 11 1 -171.11846755768536 79.33823934926968 -1336.1917286963394 0 0 0
1718 115 8 0 -430.8185510650592 251.23059717292168 -1344.8867068034938 0 0 0
1420 95 10 1 -1601.910725515942 462.66337005512287 -1335.885431444936 0 0 0
1417 95 7 2 -1550.9094608362539 490.38733787676165 -1316.4410553072921 0 0 0
1421 95 11 1 -1507.502503179598 517.5759403895237 -1300.2360518801363 0 0 0
1053 71 3 -1.5 -688.9799407990273 522.8849533658938 -1335.9679974206842 0 0 0
1062 71 12 0 -640.068964839918 523.8009648111489 -1337.3121037532203 0 0 0
1060 71 10 1 -582.5508135376894 509.47562658814127 -1306.0880486060269 0 0 0
1057 71 7 2 -524.7529646087711 510.3103251147178 -1282.0140325064806 0 0 0
4931 329 11 1 -1878.3793670977614 599.3571854643556 -1332.1688343105996 0 0 0
1419 95 9 0 -1466.2719336378566 566.9867080542407 -1281.3968898956357 0 0 0
4929 329 9 0 -1872.4162708757735 649.1219453925498 -1286.4719942026552 0 0 0
4683 313 3 -1.5 -2858.3043682323973 830.1790354914775 -1279.3770328809555 0 0 0
4693 313 13 -0.5 -2843.5278457182876 863.9453301416904 -1301.6710303268014 0 0 0
4476 299 6 -0.5 -1954.7005496796876 1006.7951827178244 -1342.879863957742 0 0 0
4484 299 14 -1.5 -1926.5851225569158 1008.8958400330516 -1308.6675735819622 0 0 0
4093 273 13 -0.5 -1174.1085116256115 978.7390643362521 -1275.199587496199 0 0 0
4092 273 12 0 -1089.71792226698 986.1400388263246 -1282.9921759213164 0 0 0
4665 311 15 0 -1070.039729399304 1064.6744264698264 -1283.5048188414034 0 0 0
4652 311 2 0 -1006.7352514665047 1083.703184229885 -1336.2504291578107 0 0 0
4664 311 14 -1.5 -1003.7106973978449 1069.9828329369764 -1289.6463945233552 0 0 0
5628 376 3 -1.5 -1004.099136072754 1071.5791435906567 -1287.0626365667435 0 0 0
5637 376 12 0 -971.3034733191442 1109.9115469901412 -1291.5448649981715 0 0 0
4268 285 8 0 -568.8660364973944 1100.1218240286623 -1348.7204648911095 0 0 0
4651 311 1 0 -1442.2958700255863 1141.282573071585 -1303.9862361764463 0 0 0
5635 376 10 1 -919.603329630807 1139.4088503777814 -1275.3198068184481 0 0 0
4182 279 12 0 -773.859679239322 1172.9354051819246 -1282.7863649131643 0 0 0
4265 285 5 0 -590.5023668297857 1139.2531624403541 -1292.3021910766613 0 0 0
4175 279 5 0 -759.6916482147616 1269.7474134569366 -1322.845534803947 0 0 0
4235 283 5 0 -2203.6840833304573 1300.4025855322104 -1280.8584291508441 0 0 0
4234 283 4 0 -1863.8813761218853 1298.5550269373978 -1282.502726694489 0 0 0
4178 279 8 0 -733.01665043475 1335.6541999932585 -1327.4414325695702 0 0 0
4171 279 1 0 -676.6610613287141 1364.133404560742 -1335.4174008334705 0 0 0
2415 161 15 0 -2175.1823261468567 -1371.3089703272033 -1270.4389513583385 0 0 0
3630 242 15 0 -96.43587296488008 -1404.1098810444878 -1205.6927844835093 0 0 0
3621 242 6 -0.5 -56.18931478977466 -1353.7238860895511 -1206.8323832816286 0 0 0
2402 161 2 0 -2123.818113451948 -1299.772811402543 -1228.9743648053457 0 0 0
3628 242 13 -0.5 -402.7963432268835 -1335.4697450614694 -1216.8350053113968 0 0 0
3618 242 3 -1.5 -383.4553991831611 -1333.0815470270134 -1255.3754047448929 0 0 0
3627 242 12 0 -337.89407930507 -1326.3246179183534 -1268.6194643460174 0 0 0
3625 242 10 1 -278.73243697541767 -1319.0119119326148 -1253.2380252565254 0 0 0
3622 242 7 2 -218.82253329559913 -1314.7025270586255 -1240.613790698601 0 0 0
3626 242 11 1 -164.88271903610783 -1320.3789298582362 -1234.894903096254 0 0 0
3624 242 9 0 -101.50508603273808 -1338.9977894989684 -1234.1200234514529 0 0 0
3768 252 3 -1.5 -1973.132277789203 -1133.2334300134114 -1208.9592285440317 0 0 0
3778 252 13 -0.5 -1989.1525379244063 -1171.927306750379 -1200.2537014870961 0 0 0
3772 252 7 2 -1818.5814999784768 -1141.8193975517888 -1274.8096347708422 0 0 0
3775 252 10 1 -1867.2647239175403 -1130.5459811595258 -1238.8630379291064 0 0 0
3777 252 12 0 -1923.25210456418 -1122.7132509641458 -1217.2323631388824 0 0 0
3769 252 4 0 -1539.4276479740947 -1074.8423107001258 -1268.2073723793624 0 0 0
2666 178 11 1 -105.66463974445917 -874.0006629591285 -1224.0919486010887 0 0 0
2664 178 9 0 -65.82233182364267 -860.9921494081967 -1269.9755804327974 0 0 0
916 62 1 0 -1024.7632649844086 -630.8480676137591 -1266.302273613069 0 0 0
923 62 8 0 -984.7137667338989 -610.798293525143 -1228.7956612098287 0 0 0
245 17 5 0 -1254.1451516013856 -453.9045506521105 -1208.1508212087685 0 0 0
1801 121 1 0 -2672.700032031458 -432.8083348164605 -1262.8329349641367 0 0 0
248 17 8 0 -1195.5947270347544 -419.24445217493223 -1258.3237814879071 0 0 0
975 65 15 0 -2463.0875093759787 -209.3056194628069 -1233.8533500716997 0 0 0
2939 196 14 -1.5 -2283.096477279823 -82.82932502605635 -1272.5525254743882 0 0 0
2931 196 6 -0.5 -2316.9330011842253 -111.70315834100282 -1273.943409077163 0 0 0
5059 338 4 0 -645.088918908827 -52.92144789739275 -1223.0503293637141 0 0 0
3128 209 8 0 -1150.5432354892657 14.125402824563555 -1257.043305036894 0 0 0
660 44 15 0 -147.88860295705933 23.24053263507626 -1243.5342521709456 0 0 0
654 44 9 0 -144.62139877750744 67.44727188273013 -1273.9835940072826 0 0 0
651 44 6 -0.5 -143.70021231628854 69.63189958004325 -1218.204436526705 0 0 0
1715 115 5 0 -392.59512739488275 264.6333848264683 -1264.6938014787702 0 0 0
1052 71 2 0 -311.77824245804817 434.27570963885614 -1215.728204292385 0 0 0
1054 71 4 0 -278.605412103013 394.23729437381775 -1211.7470026243564 0 0 0
1061 71 11 1 -472.5222652766675 506.5241676380408 -1268.608975494821 0 0 0
1059 71 9 0 -415.4213216139968 503.1228148997951 -1237.1704718467304 0 0 0
1065 71 15 0 -374.12677183110395 464.79861075901357 -1228.685992482062 0 0 0
4935 329 15 0 -1910.132216715321 670.0285408796295 -1235.894094691567 0 0 0
1412 95 2 0 -1503.7669275003427 658.7433220196175 -1230.095842519803 0 0 0
1416 95 6 -0.5 -1449.1869648487097 606.3593541576275 -1249.7230744363978 0 0 0
1425 95 15 0 -1475.5928577812922 601.6223534989634 -1271.9723957651004 0 0 0
1424 95 14 -1.5 -1452.8766774221033 634.43160806863 -1216.0108561873365 0 0 0
4926 329 6 -0.5 -1876.6503114198727 698.5594979117408 -1263.58405728581 0 0 0
4934 329 14 -1.5 -1896.4646830609192 738.3717596527584 -1258.7217827786783 0 0 0
4692 313 12 0 -2855.7833255056407 823.1400788853033 -1228.7353740055935 0 0 0
4685 313 5 0 -2965.056301099078 830.1141449805123 -1220.807692061184 0 0 0
4653 311 3 -1.5 -1360.4964981122203 953.1423647201199 -1224.204813184296 0 0 0
4083 273 3 -1.5 -1132.4915655867096 970.7048948136403 -1264.259238471648 0 0 0
4662 311 12 0 -1320.60359638873 981.2261299735695 -1214.5970321318612 0 0 0
4660 311 10 1 -1253.8982169894687 978.6053516722801 -1226.3306732303233 0 0 0
4657 311 7 2 -1194.9164310498163 986.8230923157084 -1243.4390491268116 0 0 0
4661 311 11 1 -1142.569370277326 994.5177191816522 -1251.4998006321725 0 0 0
4659 311 9 0 -1084.0801943295642 1025.080371438817 -1251.9963035104413 0 0 0
4090 273 10 1 -1039.300616465444 1020.7450837504617 -1268.9890512093802 0 0 0
4656 311 6 -0.5 -1028.9213808684824 1041.1540788374193 -1267.468442454676 0 0 0
4655 311 5 0 -1351.3059439810706 1071.981824748949 -1221.7488397329419 0 0 0
4658 311 8 0 -1402.4207892357902 1119.7113934137915 -1241.270213897495 0 0 0
4087 273 7 2 -993.9500651256319 1058.5084164772827 -1251.5447619917147 0 0 0
5638 376 13 -0.5 -1033.8120346824567 1061.5322348075913 -1258.7518866019486 0 0 0
4091 273 11 1 -958.4560337215257 1093.391617423858 -1230.7165177504976 0 0 0
4084 273 4 0 -719.3285541959169 1112.8940312995219 -1205.8102011702138 0 0 0
4089 273 9 0 -918.50691229644 1144.6140048853863 -1219.3166276040804 0 0 0
4893 327 3 -1.5 -857.0068007371494 1151.8788652213998 -1271.6858156561136 0 0 0
4903 327 13 -0.5 -897.8637322110222 1139.8013981864137 -1266.831609556146 0 0 0
5632 376 7 2 -862.2987084545687 1160.8139658523694 -1265.6950420849964 0 0 0
4086 273 6 -0.5 -882.6023131359154 1181.6615936326614 -1229.0881483531223 0 0 0
4183 279 13 -0.5 -838.0711867618646 1169.2117513122637 -1233.447178367942 0 0 0
4095 273 15 0 -874.0538557142612 1140.3680920155193 -1223.16634567992 0 0 0
4902 327 12 0 -812.9489660204925 1134.194625856074 -1255.5071519199305 0 0 0
4173 279 3 -1.5 -818.5744432032568 1181.2198227039232 -1268.9535951301236 0 0 0
5636 376 11 1 -813.1776194139802 1180.5351594264007 -1255.8727293311943 0 0 0
4900 327 10 1 -758.4869245392593 1149.5596855278482 -1236.1263959012974 0 0 0
5634 376 9 0 -749.4718262493806 1192.1180876676417 -1236.859585751695 0 0 0
4180 279 10 1 -717.6593926824954 1155.8195126571866 -1255.933346005812 0 0 0
5383 359 13 -0.5 -684.0009502503581 1180.3252314706483 -1243.0749602149888 0 0 0
5631 376 6 -0.5 -702.3427431211885 1178.3568791534915 -1211.408185267388 0 0 0
4897 327 7 2 -703.4450043160125 1163.6411996479524 -1213.9486634058499 0 0 0
4177 279 7 2 -663.1239591933434 1148.5516396381684 -1228.0825543395213 0 0 0
5373 359 3 -1.5 -642.7212836749517 1190.4701950308606 -1246.6305808882696 0 0 0
5382 359 12 0 -600.8915577827852 1165.6691934141481 -1233.8082719094639 0 0 0
5380 359 10 1 -534.3558374782821 1169.5980247241114 -1232.6413202620088 0 0 0
5377 359 7 2 -474.629741345835 1183.9714008896115 -1225.421916264636 0 0 0
5381 359 11 1 -422.2863325487596 1194.9883474068438 -1217.2537121339742 0 0 0
4094 273 14 -1.5 -853.0843506512473 1201.4998765847345 -1255.8848610179211 0 0 0
4273 285 13 -0.5 -658.4183143883528 1219.972985572017 -1215.7429993567341 0 0 0
4263 285 3 -1.5 -620.2741919152671 1205.1358589894137 -1203.6984889212579 0 0 0
4272 285 12 0 -574.9436658577857 1210.2825800387798 -1222.1531688236223 0 0 0
4270 285 10 1 -511.3242854345368 1212.2425155510143 -1218.6673522431695 0 0 0
4267 285 7 2 -451.75707391729827 1222.692152929296 -1208.6073953175367 0 0 0
5376 359 6 -0.5 -309.25923681892726 1211.449163486354 -1208.3742301909608 0 0 0
5384 359 14 -1.5 -271.09534981613024 1234.9368937327424 -1208.0592631028576 0 0 0
4232 283 2 0 -1866.0274414954265 1321.441519559455 -1235.7188507516596 0 0 0
3617 242 2 0 -51.91019127428155 -1463.473625702537 -1198.0832587511757 0 0 0
3629 242 14 -1.5 -30.99661291843348 -1386.3469177030408 -1190.8165593221702 0 0 0
2404 161 4 0 -2082.0939576085693 -1296.7407917423106 -1192.9271012454549 0 0 0
3770 252 5 0 -1921.7957469744226 -1112.5714005912148 -1128.357154678544 0 0 0
2665 178 10 1 -185.23584357899588 -881.1335045859488 -1140.84730181922 0 0 0
2662 178 7 2 -143.76858723884277 -878.4314072124978 -1186.7761971380355 0 0 0
5533 369 13 -0.5 -2674.472956993501 -613.8698258280765 -1154.3173046360857 0 0 0
5523 369 3 -1.5 -2637.9323270889854 -591.0141133260663 -1154.4469743178836 0 0 0
1618 108 13 -0.5 -1553.4330247625555 -568.903996423059 -1157.6767519799646 0 0 0
1608 108 3 -1.5 -1516.5255435896265 -572.5696458760549 -1135.915176246829 0 0 0
1617 108 12 0 -1477.1111771502424 -540.9546738022357 -1131.7519402132905 0 0 0
920 62 5 0 -957.1293945957976 -574.2852612340545 -1161.0308982707002 0 0 0
243 17 3 -1.5 -1307.0087012031374 -489.47987404698836 -1127.4561380458797 0 0 0
919 62 4 0 -655.9077473401328 -408.43060456737174 -1193.6274342092283 0 0 0
917 62 2 0 -669.6837775490515 -405.4922316118591 -1129.3114869251576 0 0 0
3377 226 2 0 -362.07118597386 -318.2806356811053 -1167.5396737228534 0 0 0
3379 226 4 0 -303.52335943019796 -315.0726886572979 -1170.4538097563689 0 0 0
962 65 2 0 -2410.9779993524267 -193.370465162448 -1176.336511279192 0 0 0
964 65 4 0 -2351.0557832309064 -201.08813652176414 -1147.719549611376 0 0 0
3389 226 14 -1.5 -447.94976849506503 -215.79680714048237 -1132.0522846433187 0 0 0
3122 209 2 0 -771.6656940360023 -18.232039565497477 -1138.7764912312118 0 0 0
5070 338 15 0 -711.3562743324627 -1.6384277876639108 -1131.546012306295 0 0 0
5057 338 2 0 -663.8372497180127 -10.43734582025789 -1192.1650408049352 0 0 0
649 44 4 0 -150.75141773148283 -57.56904840097244 -1133.8805793560962 0 0 0
647 44 2 0 -148.66707008632457 -18.27782266433208 -1164.5297203543055 0 0 0
3125 209 5 0 -1138.7149545427715 20.85598296460724 -1175.890506956138 0 0 0
3124 209 4 0 -742.2463371588099 2.64255420875461 -1178.6295630999798 0 0 0
659 44 14 -1.5 -145.83977690227277 45.99267868492422 -1180.8340664704072 0 0 0
1003 67 13 -0.5 -1144.6406850238682 210.40000229501754 -1145.7229952492416 0 0 0
1713 115 3 -1.5 -404.0999704109476 217.9787613232137 -1150.8328287295703 0 0 0
1722 115 12 0 -382.35669775793724 260.1112626212961 -1151.1476679076504 0 0 0
1720 115 10 1 -339.3865374334014 305.5824690607678 -1132.5340417011066 0 0 0
1291 87 1 0 -1024.310937543114 442.4630583835848 -1168.7578535276157 0 0 0
5161 345 1 0 -2096.5382898159996 517.8000512282026 -1135.6822044214884 0 0 0
1298 87 8 0 -1070.6210254252485 481.6492572501 -1134.521345994369 0 0 0
1056 71 6 -0.5 -386.1513059340558 495.23495860453096 -1196.4384031974253 0 0 0
1064 71 14 -1.5 -379.023620727146 503.2789936773173 -1153.6021475586751 0 0 0
1414 95 4 0 -1506.9708766437568 705.3654356474793 -1184.5819939888333 0 0 0
4922 329 2 0 -1929.1541971856639 751.044857583569 -1185.3810405797662 0 0 0
4924 329 4 0 -1936.0051083151848 813.3588672154601 -1159.707699318395 0 0 0
4690 313 10 1 -2831.4770561507926 826.5405465216567 -1170.0901607910478 0 0 0
4663 311 13 -0.5 -1390.1968574692294 940.7615571802615 -1196.5848984897366 0 0 0
4898 327 8 0 -925.5042555903252 1078.3660941009796 -1129.7112616719132 0 0 0
4895 327 5 0 -867.0968955143103 1096.4658722713248 -1163.860926906734 0 0 0
4082 273 2 0 -770.598245206665 1131.2334168778111 -1188.1454040235615 0 0 0
5639 376 14 -1.5 -678.2418352655269 1152.8824542601446 -1184.848109730485 0 0 0
4901 327 11 1 -652.7202917803645 1176.9709848736074 -1199.992463193847 0 0 0
4181 279 11 1 -620.0127739800744 1139.3505239814756 -1196.3837698250181 0 0 0
5375 359 5 0 -628.8195797507445 1173.282683551269 -1153.0985569403592 0 0 0
4179 279 9 0 -563.7385553472872 1135.646432895766 -1162.8411113143673 0 0 0
4899 327 9 0 -588.6589600016916 1175.3952942555093 -1181.7023540800844 0 0 0
4896 327 6 -0.5 -536.75650782667 1165.661128571785 -1180.8427700642073 0 0 0
4176 279 6 -0.5 -512.1532549290886 1140.5351734114172 -1148.089769548832 0 0 0
4184 279 14 -1.5 -470.1173587005174 1140.7706749064048 -1161.329843974945 0 0 0
4904 327 14 -1.5 -494.3630956035243 1172.9673816335785 -1191.3808062643775 0 0 0
4894 327 4 0 -445.8957960608383 1188.943786241126 -1163.0708438920062 0 0 0
5385 359 15 0 -327.0606791216895 1169.6809355604871 -1164.1428996459197 0 0 0
4233 283 3 -1.5 -2241.3117037983843 1269.6359973053077 -1167.255103245034 0 0 0
4357 291 7 2 -2105.7449446756136 1266.3001464991307 -1145.2058210094535 0 0 0
4360 291 10 1 -2165.6517484768524 1262.8609501703675 -1130.1798877676076 0 0 0
4361 291 11 1 -2053.0104165566236 1269.9525524891803 -1156.1355899942846 0 0 0
4359 291 9 0 -1984.1844598861842 1269.9195680818807 -1151.6630835847818 0 0 0
5640 376 15 0 -718.0166204871241 1200.995376135897 -1175.6909395043124 0 0 0
4905 327 15 0 -550.2251560436266 1207.2554578001736 -1160.8295828339187 0 0 0
4892 327 2 0 -492.32211652579105 1216.4474103027603 -1151.7268711901434 0 0 0
4271 285 11 1 -400.645435044132 1237.5868927436343 -1199.6523086106852 0 0 0
5379 359 9 0 -362.5038325535638 1210.4147244092726 -1198.4206399498632 0 0 0
4269 285 9 0 -338.0540157544375 1246.8250038298584 -1176.5382621997348 0 0 0
4274 285 14 -1.5 -243.36706018074472 1246.2072474053582 -1164.3665076468756 0 0 0
4266 285 6 -0.5 -286.43828265182015 1236.127745572758 -1162.7184269605496 0 0 0
4243 283 13 -0.5 -2274.558561941402 1277.9451005075966 -1141.1838310996156 0 0 0
4355 291 5 0 -2262.6848687207776 1334.0568003796946 -1170.8628940975684 0 0 0
4242 283 12 0 -2197.329334242942 1291.3800389131652 -1173.9435585444892 0 0 0
4240 283 10 1 -2135.9644522780172 1303.4060328596968 -1156.0498560747017 0 0 0
4237 283 7 2 -2076.416248563979 1304.5002685933616 -1139.818167799258 0 0 0
4241 283 11 1 -2023.7490895399283 1302.1610977150726 -1128.6047528486888 0 0 0
4356 291 6 -0.5 -1933.6024757986672 1279.2301462870894 -1162.6363992601614 0 0 0
4245 283 15 0 -1905.4934058812653 1322.3448341368087 -1186.9513053523144 0 0 0
4364 291 14 -1.5 -1892.9101059746665 1290.989101805602 -1149.0638521428789 0 0 0
4358 291 8 0 -2261.5786094484693 1411.2584875597302 -1190.6594797318585 0 0 0
4351 291 1 0 -2254.499779004954 1473.7174037453667 -1177.229197841894 0 0 0
3619 242 4 0 -41.621044445837605 1487.7851698038987 -1157.0066714184386 0 -1 0
3773 252 8 0 -1923.9827651314913 -1097.7603403985524 -1056.5887833280754 0 0 0
2658 178 3 -1.5 -241.51696785418568 -916.1663089545325 -1055.809125730896 0 0 0
2667 178 12 0 -231.5754097341095 -889.2787188260953 -1095.1787480435382 0 0 0
5532 369 12 0 -2612.5775218129884 -568.2117524596338 -1119.1576929888117 0 0 0
5530 369 10 1 -2555.2930952672777 -542.0572572436647 -1097.5504191974517 0 0 0
1615 108 10 1 -1416.8597716644845 -539.985431922304 -1113.0838946123345 0 0 0
1612 108 7 2 -1358.8590594007312 -530.4509628231243 -1093.9893658617038 0 0 0
1620 108 15 0 -1185.2882718309627 -528.7714731630225 -1076.7680626366134 0 0 0
1607 108 2 0 -1117.8635768741988 -543.193249862434 -1055.3040417240695 0 0 0
1609 108 4 0 -1061.9047073007673 -553.8719165139512 -1060.6480977737708 0 0 0
918 62 3 -1.5 -1003.6014874237248 -542.7111215435517 -1052.577112212398 0 0 0
927 62 12 0 -958.0522203068485 -539.8327215663253 -1072.1729360586103 0 0 0
5525 369 5 0 -2709.7669547104297 -512.5812568248045 -1050.8351826578732 0 0 0
5527 369 7 2 -2504.9205660288385 -522.8046427720077 -1068.018084196974 0 0 0
1610 108 5 0 -1528.4066984602073 -469.9915254337755 -1065.1152163660618 0 0 0
1616 108 11 1 -1306.815823862009 -517.5414865537533 -1082.047906995505 0 0 0
253 17 13 -0.5 -1340.7525922156324 -495.13609308311754 -1102.053670926353 0 0 0
252 17 12 0 -1263.6503659949071 -469.5986721969108 -1121.698128734878 0 0 0
1614 108 9 0 -1243.5697269262284 -512.8181937083734 -1058.4328116800948 0 0 0
250 17 10 1 -1206.29041637374 -481.6613995251105 -1098.3080541113216 0 0 0
247 17 7 2 -1147.298676317585 -487.2994263401829 -1079.6417551838365 0 0 0
1611 108 6 -0.5 -1194.1887616846973 -490.6156135782558 -1053.6399160547817 0 0 0
1619 108 14 -1.5 -1165.5407354825286 -457.00521199070874 -1056.0919595060248 0 0 0
251 17 11 1 -1098.1492056441139 -499.75585128108895 -1063.697196806117 0 0 0
925 62 10 1 -899.1346514021446 -520.5237073493008 -1057.1687735796954 0 0 0
3386 226 11 1 -570.3747782819097 -295.656349381557 -1068.312524896449 0 0 0
3384 226 9 0 -520.5344074425806 -260.38861090068934 -1090.1792035424958 0 0 0
3390 226 15 0 -429.79066726271316 -279.7433955794403 -1124.9273166031003 0 0 0
3381 226 6 -0.5 -487.31700510434547 -224.04311219394677 -1113.4020270697465 0 0 0
3133 209 13 -0.5 -1214.709005479724 -32.46167930525506 -1057.0865960898977 0 0 0
3123 209 3 -1.5 -1190.2849562877525 -17.537935463634042 -1088.239562717342 0 0 0
3132 209 12 0 -1142.0127936334898 -22.88369618172493 -1096.1178681101017 0 0 0
3130 209 10 1 -1080.2182727739985 -27.310400051120784 -1074.729042026435 0 0 0
3127 209 7 2 -1024.9765790859446 -43.861824887210666 -1053.778559716815 0 0 0
3135 209 15 0 -839.17930833016 -18.611308262407153 -1082.5226655601168 0 0 0
5066 338 11 1 -787.7023206589686 -17.67273444745239 -1052.4698925192265 0 0 0
5061 338 6 -0.5 -678.5252168587467 -4.037254694715186 -1093.9421093856838 0 0 0
5064 338 9 0 -727.8290655604964 -2.139244273555652 -1079.366731493054 0 0 0
5069 338 14 -1.5 -639.8905508921397 -24.81278729669779 -1099.3876459361968 0 0 0
993 67 3 -1.5 -1147.1260451040396 208.00101657017058 -1103.190162937402 0 0 0
1002 67 12 0 -1111.783094109931 205.0240325573707 -1070.3248244735526 0 0 0
1723 115 13 -0.5 -397.33351224499813 184.3627345767483 -1124.1494318573805 0 0 0
995 67 5 0 -1134.4100564484565 275.9756647790209 -1058.0148458893284 0 0 0
998 67 8 0 -1132.7676225469925 341.57994903478215 -1070.339563743838 0 0 0
2386 160 1 0 -826.7188369946417 324.37540938369267 -1057.8921409953825 0 0 0
1717 115 7 2 -301.66495235915005 347.2995452315562 -1107.0305381309972 0 0 0
1721 115 11 1 -265.16298172188374 384.3290293027102 -1093.9639866679302 0 0 0
1719 115 9 0 -220.61377685782017 419.75558143387576 -1060.7621722188353 0 0 0
1295 87 5 0 -1069.5847920590184 496.4360405001422 -1050.477767036329 0 0 0
5168 345 8 0 -2085.3009531501125 565.2627489796072 -1103.3254783695436 0 0 0
5165 345 5 0 -2116.9412007150777 617.4432723047798 -1060.6451035826492 0 0 0
4687 313 7 2 -2804.3466200925495 824.5300625212457 -1114.0914375745756 0 0 0
3523 235 13 -0.5 -1508.6136199668908 768.0793535173252 -1083.1642352629806 0 0 0
4691 313 11 1 -2780.536190154763 835.9925981939706 -1067.0937546906212 0 0 0
4066 272 1 0 -2739.8005576738537 860.8080716917844 -1061.6284364054181 0 0 0
4891 327 1 0 -977.2838117245832 1068.2398413436097 -1081.1463684268485 0 0 0