LAMMPS data file via write_data, version 27 Jun 2024, timestep = 31360000, units = real

5730 atoms
15 atom types
5686 bonds
16 bond types
5730 angles
15 angle types

-3000 3000 xlo xhi
-1500 1500 ylo yhi
-1500 1500 zlo zhi

Masses

1 241.19
2 73.54000000000001
3 330.71
4 235.16
5 68.06999999999999
6 353.53
7 223.38
8 41.1
9 216.91
10 155.15
11 147.32
12 264.65
13 300.8
14 326.05
15 85.20999999999999

Pair Coeffs # lj/cut/coul/debye/gpu

1 0.71637 40.7505
2 0.665709 48.1397
3 1.15033 39.2216
4 0.726774 43.8077
5 0.514724 53.3428
6 1.17127 41.7847
7 1.2256 38.5601
8 0.675431 54.5696
9 1.26117 43.78
10 0.939007 42.5209
11 0.960667 41.1825
12 1.30988 48.0761
13 1.36645 37.7114
14 1.35529 39.2179
15 0.592003 47.2602

Bond Coeffs # harmonic

1 0.003 59.228
2 0.008 56.48
3 0.001 69.324
4 3.207 42.88
5 0.11 49.807
6 0.002 74.968
7 0.001 91.635
8 0.145 54.383
9 2.709 44.406
10 1.71 61.679
11 1.625 54.051
12 0.207 66.185
13 0.002 64.76
14 0.079 63.886
15 0.2 40
16 0.2 40

Angle Coeffs # harmonic

1 11.427 158.273
2 50.464 132.042
3 8.207 156.514
4 92.705 149.394
5 100 174.44
6 3.15 145.53
7 48.938 159.031
8 17.401 129.945
9 15.735 56.441
10 60 172.254
11 60.285 168.396
12 11.83 99.091
13 150 107.995
14 27.746 149.925
15 7.483 160.775

Atoms # full

2413 161 13 -0.5 -2227.648657002197 -1479.1868797167474 -1432.047079329821 0 0 0
3766 252 1 0 -1978.619994094 -1306.1445633480648 -1487.5837600645457 0 0 0
3773 252 8 0 -1941.6223519131497 -1285.9133521387373 -1474.457906301282 0 0 0
3771 252 6 -0.5 -1620.154267104203 -1299.3574793365747 -1488.8673666880663 0 0 0
3774 252 9 0 -1644.7763525648309 -1276.4566650209595 -1446.2649882307908 0 0 0
3780 252 15 0 -1577.2175729683552 -1246.0415314855627 -1478.622260802391 0 0 0
3767 252 2 0 -1498.964373029616 -1220.9079168587484 -1489.138402580768 0 0 0
2559 171 9 0 -1066.7814484806995 -1230.6565187425306 -1435.1538258192754 0 0 1
2556 171 6 -0.5 -1019.5272899537918 -1257.241483440425 -1426.8083937778895 0 0 1
1084 73 4 0 -2533.0224376062683 -1144.8046900129498 -1446.6548693231418 0 0 1
2555 171 5 0 -1324.135574252485 -1131.177930718639 -1432.7884477141686 0 0 1
2561 171 11 1 -1122.5482690911676 -1194.6975516771129 -1425.9812700087753 0 0 1
1082 73 2 0 -2495.9064375286043 -1101.9295169675822 -1464.2451089940735 0 0 1
1086 73 6 -0.5 -2347.3769094111035 -1079.5139089293802 -1492.7119895145595 0 0 1
1094 73 14 -1.5 -2320.832206615042 -1104.381123578186 -1467.4599367418068 0 0 1
2558 171 8 0 -1387.611106498222 -1109.5912321494707 -1469.5771407982115 0 0 1
5704 381 4 0 -317.1164722530181 -677.5497275940912 -1460.8771712598545 0 0 1
1814 121 14 -1.5 -2785.683045241871 -573.1559445473215 -1476.337173885258 0 0 0
1806 121 6 -0.5 -2789.384080354981 -545.7771738113988 -1441.485049033662 0 0 0
968 65 8 0 -2803.949428511883 -364.4540372036824 -1425.56464154288 0 0 0
2594 173 14 -1.5 -1680.3991788521246 -314.2244734900962 -1451.0845956628114 0 0 1
2586 173 6 -0.5 -1671.3517904311416 -302.4255115015525 -1492.677078248595 0 0 1
2595 173 15 0 -1677.078021567025 -243.19392837919702 -1472.9941073693785 0 0 1
1801 121 1 0 -2738.656123844677 -175.5450648261373 -1485.8519463375806 0 0 0
1808 121 8 0 -2711.3036664665365 -212.3507779989416 -1437.40964117896 0 0 0
2582 173 2 0 -1726.8915684123779 -204.63489547111078 -1439.7892093959567 0 0 1
1423 95 13 -0.5 -1578.6654513010806 394.6704097520134 -1449.2772081422052 0 0 0
1411 95 1 0 -1439.9867531132377 491.63403172230255 -1440.7039052582602 0 0 0
4931 329 11 1 -1808.0396232452508 554.0114339209787 -1469.368411653605 0 0 0
5281 353 1 0 -2721.6562260110504 736.8064406538427 -1452.048786702704 0 0 1
5288 353 8 0 -2685.6119044970123 709.1175108925621 -1476.085882404558 0 0 1
4365 291 15 0 -2114.901737223325 1158.6576211830043 -1453.2115081742902 0 0 0
4352 291 2 0 -2142.4934236642257 1193.988854719467 -1491.2423296305567 0 0 0
4244 283 14 -1.5 -2063.387864624157 1132.796044137446 -1451.416541278603 0 0 0
4477 299 7 2 -2047.77096068234 1167.8803047815145 -1457.2372364880493 0 0 0
4356 291 6 -0.5 -2051.0394964330585 1156.8529071603664 -1445.7410709709593 0 0 0
4480 299 10 1 -2094.8434073767244 1171.8462777340171 -1497.9186451312348 0 0 0
4364 291 14 -1.5 -2015.3853798207763 1149.3157308155817 -1471.6063105848325 0 0 0
4234 283 4 0 -1910.6307660405294 1160.9653639140136 -1429.4448776815657 0 0 0
2412 161 12 0 -2177.462178033083 -1485.4921121938005 -1368.1968864094479 0 0 0
2403 161 3 -1.5 -2189.6511145002332 -1488.773918532507 -1414.3936448396012 0 0 0
2565 171 15 0 -1073.5952468447542 -1299.6059099934312 -1397.1708685626363 0 0 1
3770 252 5 0 -1917.8577610092182 -1266.0851271208726 -1410.4587939254825 0 0 0
3775 252 10 1 -1805.685731110961 -1247.1851296118912 -1369.858223187614 0 0 0
3772 252 7 2 -1747.0114833147825 -1254.0100866061628 -1388.524070102438 0 0 0
3776 252 11 1 -1699.306605109073 -1262.828932378473 -1412.5915926220512 0 0 0
2564 171 14 -1.5 -981.1205352250687 -1257.2040681682945 -1404.7720564262456 0 0 1
2560 171 10 1 -1226.0996263206455 -1148.1299031320318 -1403.4870365455868 0 0 1
2557 171 7 2 -1170.291215813243 -1171.0290838285182 -1414.4792177265276 0 0 1
2562 171 12 0 -1284.1814342699213 -1116.8994412631623 -1390.9705651158085 0 0 1
2553 171 3 -1.5 -1314.4442144494599 -1087.841321116933 -1363.0352596677646 0 0 1
1804 121 4 0 -2725.340259370048 -739.3661884868914 -1404.2267006657928 0 0 0
1802 121 2 0 -2722.9800879646696 -688.6845021705859 -1396.704999258327 0 0 0
1815 121 15 0 -2759.2001584495038 -586.5730360801388 -1392.2879728906462 0 0 0
5521 369 1 0 -2804.285665512541 -510.81199266868754 -1383.7077000535737 0 0 0
1809 121 9 0 -2766.2383638822457 -508.3318662829357 -1409.4088482316217 0 0 0
1811 121 11 1 -2733.736918242706 -459.38553913779396 -1380.6796255268275 0 0 0
973 65 13 -0.5 -2719.541754249477 -452.31882199451354 -1365.3023260456043 0 0 0
5533 369 13 -0.5 -2701.4366430588116 -380.0396327936873 -1367.9509013181032 0 0 0
1807 121 7 2 -2698.5675087414215 -421.3038405232155 -1365.170726233341 0 0 0
963 65 3 -1.5 -2679.8996297572694 -439.86903757455053 -1374.8340303102032 0 0 0
972 65 12 0 -2665.3512939646166 -396.48795275791406 -1394.4035203213768 0 0 0
916 62 1 0 -816.7462682857516 -430.22952838413136 -1357.1850028527845 0 0 0
961 65 1 0 -2873.3580083624074 -337.4640672759294 -1424.9429896435806 0 0 0
965 65 5 0 -2737.0346935556486 -370.50722413436046 -1421.8487163832513 0 0 0
1810 121 10 1 -2662.8152243614145 -373.1328087716064 -1350.9370319910847 0 0 0
970 65 10 1 -2624.95021122059 -344.79904100977103 -1384.8625856001795 0 0 0
1805 121 5 0 -2699.3709206536946 -242.60531340320344 -1391.629245956321 0 0 0
967 65 7 2 -2589.8607525114935 -294.5034783017244 -1377.7937995939785 0 0 0
971 65 11 1 -2554.518102007226 -254.88525626099351 -1370.0724205598951 0 0 0
1813 121 13 -0.5 -2553.139533413365 -297.6505968602791 -1362.6764981768995 0 0 0
2926 196 1 0 -2699.3529272822593 -156.8949077395461 -1375.4593608598648 0 0 0
2933 196 8 0 -2665.710287429335 -187.72415022950463 -1377.4200974812854 0 0 0
2584 173 4 0 -1759.3964270449626 -153.30057428612488 -1421.6254112917072 0 0 1
1063 71 13 -0.5 -846.4819373026294 39.27704197054487 -1381.5001928682814 0 0 0
1053 71 3 -1.5 -833.4578193244107 75.47949693058864 -1400.7348758227859 0 0 0
1062 71 12 0 -787.9673214191306 100.94806531926376 -1407.818023918399 0 0 0
1060 71 10 1 -756.3209827472092 149.68593311737268 -1395.815326024232 0 0 0
1057 71 7 2 -717.3798751428801 197.95394928450784 -1391.1827561502464 0 0 0
1723 115 13 -0.5 -684.9278636119542 186.65133947513627 -1412.9633770137332 0 0 0
1713 115 3 -1.5 -676.130411223621 226.99869995498145 -1401.241522656035 0 0 0
1061 71 11 1 -689.2108683933636 244.0207120843538 -1389.9360881686819 0 0 0
1722 115 12 0 -639.6184511222696 249.654650651979 -1379.2530684099538 0 0 0
1059 71 9 0 -652.0283479929968 296.7801855068498 -1372.6719451276017 0 0 0
1720 115 10 1 -596.3473510281582 289.8344066466886 -1376.7053560509821 0 0 0
1056 71 6 -0.5 -605.2441427914736 321.32636088847215 -1362.4204360826832 0 0 0
1717 115 7 2 -546.9535094142972 325.3042206895553 -1363.5962121933812 0 0 0
1721 115 11 1 -509.8010687344384 362.2362396856784 -1350.9400340238083 0 0 0
1413 95 3 -1.5 -1586.9667089635452 388.824660577192 -1408.4538954960233 0 0 0
1422 95 12 0 -1586.6584588767353 426.8134303338802 -1373.721311590105 0 0 0
1415 95 5 0 -1537.445832496088 436.3863877618915 -1372.2390996716592 0 0 0
1418 95 8 0 -1464.4919521870595 441.09179683528595 -1389.4950254494906 0 0 0
4926 329 6 -0.5 -1823.1490263491717 514.2716903153531 -1360.0041762790538 0 0 0
4935 329 15 0 -1761.2502075040763 508.9407950519666 -1355.7301935464732 0 0 0
1725 115 15 0 -459.1077648858491 466.9908286581163 -1357.8368424212847 0 0 0
4929 329 9 0 -1807.2546049216637 539.5071795752534 -1406.1194949626179 0 0 0
1714 115 4 0 -458.2328604434156 598.5464479118278 -1358.9552560099444 0 0 0
4236 283 6 -0.5 -2043.2711926214147 1122.6922090910657 -1412.8102484823703 0 0 0
4245 283 15 0 -1989.2109431323315 1119.0642985275451 -1390.839639691666 0 0 0
4359 291 9 0 -2075.4335358960084 1150.6511361167964 -1399.7559764886648 0 0 0
4239 283 9 0 -2039.9399227778538 1127.1274985167024 -1359.2866177658964 0 0 0
4232 283 2 0 -1953.804396200627 1127.2760770345142 -1413.7169475824444 0 0 0
4481 299 11 1 -2010.4021776101154 1167.3253467063212 -1418.485430915023 0 0 0
4479 299 9 0 -1978.4674982646652 1166.4110880245898 -1361.1501404896571 0 0 0
4264 285 4 0 -259.6855780459054 1249.900714104898 -1382.9205706698 0 0 0
2405 161 5 0 -2205.000206876996 1423.8120344433607 -1353.2428070425397 0 -1 0
2410 161 10 1 -2183.3389416785294 -1456.4580030750972 -1314.153417830292 0 0 0
2554 171 4 0 -1136.3039316625625 -1361.3717352794968 -1291.6065105089012 0 0 1
2552 171 2 0 -1092.3149634237182 -1347.8375551769022 -1326.2333173139991 0 0 1
3768 252 3 -1.5 -1896.4248557263256 -1262.6082494926677 -1311.3512470370536 0 0 0
3777 252 12 0 -1866.496755174317 -1246.6508466584514 -1348.0732786244303 0 0 0
2563 171 13 -0.5 -1305.888280841432 -1054.690796857595 -1337.2160831219421 0 0 1
5528 369 8 0 -2773.832105801563 -504.0605634373336 -1340.9276836486242 0 0 0
5525 369 5 0 -2719.085133306369 -487.99865528682795 -1305.8737860390847 0 0 0
5523 369 3 -1.5 -2672.1498177719445 -402.06406884959955 -1345.8551906407147 0 0 0
5532 369 12 0 -2670.90577341745 -417.51543338507645 -1296.773864696132 0 0 0
923 62 8 0 -866.6718719872597 -445.06837761678725 -1291.664780444293 0 0 0
1812 121 12 0 -2636.0073155802806 -314.8904162669073 -1346.5081313965886 0 0 0
2938 196 13 -0.5 -2588.6224654398175 -306.21762652381545 -1339.766176661515 0 0 0
1803 121 3 -1.5 -2591.9600283538393 -287.9744459291855 -1348.269076863769 0 0 0
2928 196 3 -1.5 -2556.496736418092 -290.3508994228429 -1316.749308185462 0 0 0
2937 196 12 0 -2537.45858563018 -244.1833604099954 -1319.2702567368246 0 0 0
2930 196 5 0 -2600.135062372441 -203.3825353050758 -1334.7448115276252 0 0 0
969 65 9 0 -2513.0170941603205 -212.6779577459988 -1340.9366373035139 0 0 0
966 65 6 -0.5 -2480.2790724477177 -168.3996836294535 -1331.1174511236884 0 0 0
975 65 15 0 -2523.960632690854 -164.95591083694785 -1276.080636295004 0 0 0
2935 196 10 1 -2492.7799497634337 -206.61174562087533 -1298.9461400593275 0 0 0
974 65 14 -1.5 -2457.4955747229005 -145.53295044098593 -1300.5238602161594 0 0 0
658 44 13 -0.5 -218.42947065458722 -131.48652236551933 -1297.1413086419557 0 0 0
1715 115 5 0 -664.7179552091714 224.79840080393012 -1280.8891092126346 0 0 0
1065 71 15 0 -633.1350689736619 305.76727078249 -1315.7976592824748 0 0 0
1064 71 14 -1.5 -573.133944717887 332.1063449221921 -1333.0702744976045 0 0 0
1719 115 9 0 -462.36772544978567 407.8949588199093 -1343.9698852905017 0 0 0
1716 115 6 -0.5 -432.9486661082132 444.10429362930165 -1315.0072392045997 0 0 0
4934 329 14 -1.5 -1819.9856868641195 481.677434366468 -1328.7947755738992 0 0 0
4922 329 2 0 -1733.2419455576737 482.37767988420484 -1286.114052768198 0 0 0
1417 95 7 2 -1650.533162950576 496.5161755917583 -1295.0405594683946 0 0 0
1420 95 10 1 -1614.481212291208 461.59115895922423 -1331.1044137948368 0 0 0
3016 202 1 0 -844.899993988062 486.6454120179914 -1282.9436550758935 0 0 0
1724 115 14 -1.5 -430.9000425620742 482.79457445826324 -1292.49704439384 0 0 0
1712 115 2 0 -450.7629940592583 544.4304039430586 -1344.599881347145 0 0 0
1414 95 4 0 -1761.6153188277199 718.262002441212 -1303.0104004508933 0 0 0
4357 291 7 2 -2093.4070540143443 1177.8084707479363 -1285.5755369973285 0 0 0
4361 291 11 1 -2079.4553242135194 1161.408440335466 -1335.2131174427861 0 0 0
4241 283 11 1 -2057.386194875661 1138.8138432048204 -1299.7375064214064 0 0 0
4485 299 15 0 -1973.5192845470126 1128.815056826377 -1319.947345107613 0 0 0
4484 299 14 -1.5 -1918.323050528766 1174.7652259783122 -1288.550809468873 0 0 0
4476 299 6 -0.5 -1937.8296821653144 1162.5478217055513 -1326.4783132179973 0 0 0
4262 285 2 0 -295.79816627566515 1242.5392694613531 -1343.405760041485 0 0 0
4275 285 15 0 -354.81625387468796 1281.8718506530327 -1277.3017235067155 0 0 0
2408 161 8 0 -2272.7387511418124 1372.4655160756529 -1345.8528069236181 0 -1 0
2401 161 1 0 -2301.343827282245 1379.969861886119 -1325.0195621521598 0 -1 0
2407 161 7 2 -2198.420803573884 -1418.3647096472096 -1268.2921297828982 0 0 0
2411 161 11 1 -2209.9182356042693 -1382.9512166129869 -1228.0239247582222 0 0 0
3628 242 13 -0.5 -504.7960059129052 -1348.489574038804 -1207.8584973125323 0 0 0
2402 161 2 0 -2284.158153888742 -1206.7338102983615 -1228.592603595293 0 0 0
2415 161 15 0 -2262.9848942000813 -1268.938528192028 -1206.805567844595 0 0 0
3778 252 13 -0.5 -1902.0817804082224 -1247.1511905336142 -1271.1586295706102 0 0 0
2404 161 4 0 -2282.8795128007846 -1155.1233949871937 -1245.0834039268232 0 0 0
5530 369 10 1 -2634.6378917553548 -425.39475375122606 -1248.0156014435217 0 0 0
920 62 5 0 -896.6354981761907 -417.60391541340147 -1209.6721004235392 0 0 0
1609 108 4 0 -1210.2703686100874 -372.54933319106766 -1218.0800379218622 0 0 0
2932 196 7 2 -2451.799173521346 -169.2790643229576 -1270.0861283994923 0 0 0
646 44 1 0 -393.67653559924867 -218.20540809853404 -1248.7975773782096 0 0 0
653 44 8 0 -365.1165932879224 -168.38383165199306 -1218.8487449101774 0 0 0
2936 196 11 1 -2417.4144030820516 -143.6389265949852 -1238.199946326432 0 0 0
3121 209 1 0 -1394.757363219717 -136.21146352180892 -1214.7411077339984 0 0 0
650 44 5 0 -299.5218336454649 -132.75025817468435 -1222.379315439817 0 0 0
657 44 12 0 -206.97225407550104 -123.97100471633625 -1213.2612137071412 0 0 0
648 44 3 -1.5 -199.78426560254147 -142.63186662921072 -1260.3673516338267 0 0 0
1718 115 8 0 -684.4140664623853 229.02987042204492 -1212.5545231030017 0 0 0
1052 71 2 0 -643.927794913309 364.3355472733622 -1253.6036013069 0 0 0
1054 71 4 0 -645.9249259244666 388.44019944487206 -1205.3049206573696 0 0 0
4924 329 4 0 -1737.5155985110234 466.59103110530106 -1232.6626035803815 0 0 0
3023 202 8 0 -848.0523749130572 474.55376347557973 -1208.7035990187578 0 0 0
1421 95 11 1 -1679.841740293295 528.953748109097 -1265.1218806425984 0 0 0
1419 95 9 0 -1716.3708654461298 578.2649769297485 -1234.0069123070853 0 0 0
1425 95 15 0 -1740.497454358294 630.8390602228408 -1253.02712952226 0 0 0
1412 95 2 0 -1755.3641212913358 690.1313868725636 -1270.0462703833507 0 0 0
4472 299 2 0 -1996.2288569149744 1098.338767733175 -1252.1637512859322 0 0 0
4474 299 4 0 -1994.5517467894574 1059.3870787403152 -1222.6291601852577 0 0 0
4351 291 1 0 -2353.5645793108583 1149.4150484652905 -1205.462425736211 0 0 0
4360 291 10 1 -2113.2256167425926 1195.1399504673266 -1229.714428355211 0 0 0
4237 283 7 2 -2081.6711002647903 1151.0356824476376 -1253.9345240644222 0 0 0
4185 279 15 0 -538.6495086143498 1262.8325719412692 -1210.9297387365268 0 0 0
4172 279 2 0 -487.544310372536 1270.4602465919286 -1238.744870755894 0 0 0
4174 279 4 0 -442.649633356887 1257.0850833962131 -1264.4111381975808 0 0 0
4238 283 8 0 -2244.285368715533 1294.8091490638042 -1202.1645712521051 0 0 0
5381 359 11 1 -475.96855339141246 1307.3560921523438 -1206.4052679653753 0 0 0
5379 359 9 0 -416.6548894889943 1328.1957649106494 -1229.0011487759139 0 0 0
4269 285 9 0 -384.61321389551404 1304.193212460835 -1203.3794148577276 0 0 0
4266 285 6 -0.5 -331.6758176600299 1299.3881021552825 -1214.5898029652878 0 0 0
5376 359 6 -0.5 -362.7585179462185 1343.4615149966812 -1220.8527315998158 0 0 0
4274 285 14 -1.5 -289.5861185163857 1299.4800992800506 -1200.2388221605927 0 0 0
5385 359 15 0 -395.3835628517208 1394.899498377843 -1223.9474456921407 0 0 0
5384 359 14 -1.5 -332.77155805773106 1373.5169463597315 -1207.4700393934938 0 0 0
5372 359 2 0 -378.716560067065 1452.8548974845423 -1226.5508187312819 0 0 0
5374 359 4 0 -346.7190457025368 1499.11057376157 -1232.3023863269725 0 0 0
2414 161 14 -1.5 -2281.6797663594816 -1290.7007129196832 -1126.9711136024432 0 0 0
2406 161 6 -0.5 -2251.862841216557 -1300.0449015779104 -1158.076926668329 0 0 0
2409 161 9 0 -2225.3558939192226 -1335.4595005504832 -1185.9228164693714 0 0 0
3863 258 8 0 -581.3008715435147 -1292.5758975890956 -1169.5348882250357 0 0 0
3618 242 3 -1.5 -507.28006895906134 -1325.7999392816018 -1171.4427311923396 0 0 0
3627 242 12 0 -478.7286280132199 -1333.669981244 -1130.4935035994351 0 0 0
3868 258 13 -0.5 -394.3074196957356 -1346.7829414193577 -1131.2949509923285 0 0 0
3856 258 1 0 -633.3256539753183 -1247.4467864686703 -1160.0457035708134 0 0 0
2663 178 8 0 -153.2354244506189 -690.8208841034391 -1147.5833402855974 0 0 0
1620 108 15 0 -1139.865512820812 -450.98929957057317 -1125.5799755157539 0 0 0
1619 108 14 -1.5 -1039.714697137861 -485.43671118219305 -1126.5913229339956 0 0 0
5527 369 7 2 -2608.788853424666 -428.7240204912001 -1192.1088379304697 0 0 0
5531 369 11 1 -2592.718675615196 -434.86138155339984 -1140.4688988433204 0 0 0
1607 108 2 0 -1163.5163940061673 -397.2915403997519 -1171.4912002248839 0 0 0
251 17 11 1 -1014.4288319049069 -431.3344079186532 -1128.3775209158955 0 0 0
249 17 9 0 -964.5981412876365 -388.01473946006314 -1133.5383785513143 0 0 0
255 17 15 0 -902.2301104366703 -399.99676145848366 -1142.985896097917 0 0 0
928 62 13 -0.5 -979.6558500656513 -345.2737360147014 -1136.6327296734203 0 0 0
246 17 6 -0.5 -935.7717558514935 -352.6559702703445 -1154.8885320228112 0 0 0
254 17 14 -1.5 -915.5941009847268 -313.59420571591795 -1154.922212939234 0 0 0
962 65 2 0 -2526.561577737788 -179.8776950616456 -1197.5829143596986 0 0 0
964 65 4 0 -2531.555928124268 -204.45301861708572 -1159.218801666747 0 0 0
3128 209 8 0 -1357.1919252205348 -163.98492142809587 -1179.927309015245 0 0 0
5068 338 13 -0.5 -1101.1638749215033 -175.26840635686867 -1130.9196839588478 0 0 0
2934 196 9 0 -2395.422903641054 -101.18766415804814 -1192.1855757765143 0 0 0
655 44 10 1 -194.241235379386 -125.32529382181544 -1149.786575605626 0 0 0
2940 196 15 0 -2426.5361512990016 -41.563627149153696 -1174.7254074850532 0 0 0
2931 196 6 -0.5 -2366.6423364993216 -63.64023888144547 -1164.686977241024 0 0 0
2939 196 14 -1.5 -2327.2617363028216 -46.670354284063876 -1150.0198683805622 0 0 0
5431 363 1 0 -621.1505664492627 -73.37831237336924 -1137.825720965931 0 0 0
2927 196 2 0 -2443.046724486498 47.93806859580597 -1168.3802509610648 0 0 0
2929 196 4 0 -2450.7286447930137 109.98821033389233 -1182.245132404697 0 0 0
1711 115 1 0 -661.6766703640878 246.48638653077452 -1162.1707904818131 0 0 0
3020 202 5 0 -812.334562984576 421.9810975738159 -1142.7295514647635 0 0 0
3021 202 6 -0.5 -466.8754301280722 414.57074674652205 -1140.6522838631336 0 0 0
3029 202 14 -1.5 -433.3976832623357 386.8808698892513 -1148.6570088502692 0 0 0
2389 160 4 0 -668.4712674333073 517.832005188597 -1172.6142847079545 0 0 0
1416 95 6 -0.5 -1732.973597159067 613.40798458625 -1196.3638996926154 0 0 0
1424 95 14 -1.5 -1767.787044189595 632.4872796949451 -1175.194801006779 0 0 0
4652 311 2 0 -963.7402410790723 981.9973209031424 -1139.6378723614437 0 0 0
4654 311 4 0 -934.6115406720766 991.7289532586506 -1185.997118364337 0 0 0
4893 327 3 -1.5 -814.6812273604553 1112.0244935346066 -1132.1704729522917 0 0 0
4358 291 8 0 -2315.118373234712 1177.2018178905166 -1180.971136660338 0 0 0
4242 283 12 0 -2113.09797612927 1186.8273354259675 -1138.9268410074603 0 0 0
4240 283 10 1 -2099.638086228596 1167.9269803794698 -1196.808905052958 0 0 0
5633 376 8 0 -1015.0870561230731 1160.5671675647498 -1140.7224524250294 0 0 0
4180 279 10 1 -768.8115858265596 1177.9671057663036 -1150.9779015596664 0 0 0
4900 327 10 1 -720.9488358574376 1165.339143210361 -1127.5256907835992 0 0 0
4897 327 7 2 -664.1993682309017 1189.9826290502433 -1127.929563286734 0 0 0
4355 291 5 0 -2247.8019364648712 1212.8744938401253 -1186.479680727662 0 0 0
4235 283 5 0 -2181.8372691585123 1251.8992775917932 -1145.283771955002 0 0 0
4362 291 12 0 -2139.71343357271 1214.9122235860136 -1179.2408663376516 0 0 0
4353 291 3 -1.5 -2132.0999126386428 1232.7816373448013 -1132.2782715974888 0 0 0
4171 279 1 0 -1043.2692403889064 1230.0809917253757 -1162.1332581907977 0 0 0
4178 279 8 0 -980.9125500099391 1206.2278075393756 -1155.1663536327185 0 0 0
4175 279 5 0 -895.4234016166778 1209.0621017119215 -1159.5084307545849 0 0 0
4177 279 7 2 -714.7145396719566 1205.0268894449664 -1164.0081812482551 0 0 0
5373 359 3 -1.5 -683.4952411999144 1258.5860584543657 -1139.0288132128637 0 0 0
5383 359 13 -0.5 -690.608946020625 1216.8367859345392 -1130.9049552747301 0 0 0
4181 279 11 1 -665.1483671243037 1225.6849616590516 -1168.9762113571237 0 0 0
4901 327 11 1 -618.44995405892 1217.943977713202 -1129.4863266643479 0 0 0
4179 279 9 0 -608.3052094064687 1256.744512452108 -1164.339895219968 0 0 0
5639 376 14 -1.5 -642.5618233427222 1225.0076485556883 -1127.1976014024021 0 0 0
4263 285 3 -1.5 -637.8130697535689 1233.2021428089768 -1127.3230238613455 0 0 0
4899 327 9 0 -559.7922215597346 1249.427229540848 -1140.560010929157 0 0 0
4894 327 4 0 -405.8092659690595 1246.8137145670523 -1137.7765316068642 0 0 0
4231 283 1 0 -2301.0720067009192 1309.0203948103606 -1196.3414644865004 0 0 0
5382 359 12 0 -637.9792214224594 1282.2720765505114 -1136.2823091774972 0 0 0
4176 279 6 -0.5 -572.0337695203302 1295.0972138525576 -1146.222214783726 0 0 0
4184 279 14 -1.5 -532.1541770534084 1315.1580902990538 -1149.2041096234295 0 0 0
5380 359 10 1 -581.3482245133973 1299.4782188436438 -1159.4231761753556 0 0 0
5377 359 7 2 -526.6379326781165 1306.0101631849163 -1187.2457260329422 0 0 0
4896 327 6 -0.5 -521.9149809544457 1280.8592527749815 -1162.784397309056 0 0 0
4904 327 14 -1.5 -494.4598027437141 1288.6203685695143 -1196.5773362900252 0 0 0
4267 285 7 2 -485.62818266413313 1299.93873672174 -1141.4030232051189 0 0 0
4271 285 11 1 -440.05987381905675 1311.3832215000878 -1168.709230389876 0 0 0
4268 285 8 0 -716.6873955326216 1396.6612740108717 -1144.5628330762988 0 0 0
4261 285 1 0 -748.6706810355997 1464.0083401078325 -1153.9582800749554 0 0 0
3619 242 4 0 -239.5817980025195 1442.5829531559689 -1198.0264971637614 0 -1 0
3617 242 2 0 -237.011128669179 1466.7149510847096 -1148.628709187081 0 -1 0
3624 242 9 0 -257.42914223932524 -1425.154988504742 -1077.780509604605 0 0 0
3630 242 15 0 -241.2492340943353 -1482.0084741388023 -1095.8605103429084 0 0 0
3621 242 6 -0.5 -209.39950419493047 -1449.7325424518006 -1063.0699850469412 0 0 0
3629 242 14 -1.5 -174.2034995269377 -1475.3743546991186 -1072.3374886537788 0 0 0
3625 242 10 1 -424.4775032043226 -1364.7303309239999 -1106.7617071951852 0 0 0
3626 242 11 1 -320.73538567393433 -1407.900606898881 -1078.7278532385906 0 0 0
3622 242 7 2 -369.2745887417698 -1386.7301206437307 -1090.1689746668296 0 0 0
3858 258 3 -1.5 -407.49443573401356 -1309.4293562876858 -1115.5136735575634 0 0 0
3867 258 12 0 -437.1950350258949 -1299.7497822340383 -1075.4001570919445 0 0 0
3860 258 5 0 -527.1364168078698 -1268.3235160467593 -1120.5155473870439 0 0 0
3620 242 5 0 -485.94079618871444 -1253.9595804642654 -1075.9911010792396 0 0 0
1318 88 13 -0.5 -101.69445247826535 -908.9354453236114 -1072.958705300944 0 0 0
2658 178 3 -1.5 -75.6991303006434 -855.6079237192525 -1067.177715866639 0 0 0
2668 178 13 -0.5 -61.441457655619004 -895.1919311333519 -1057.9164537742583 0 0 0
2667 178 12 0 -50.86412382208782 -825.1615684977347 -1095.8100540281148 0 0 0
1618 108 13 -0.5 -1248.7807759237332 -807.6458594334993 -1056.1398284955555 0 0 0
1608 108 3 -1.5 -1264.6950469706082 -767.6658503692112 -1052.194027841656 0 0 0
3436 230 1 0 -2020.3537239546927 -686.5291898187303 -1096.4319048464185 0 0 0
1613 108 8 0 -1460.9627099420916 -696.2312104400091 -1094.0981412666736 0 0 0
1610 108 5 0 -1389.5045483864444 -723.5216157013397 -1075.9330796426807 0 0 0
1617 108 12 0 -1262.8087667586376 -731.1408697903915 -1084.2117371635406 0 0 0
2660 178 5 0 -130.56110181430313 -748.9284512410832 -1120.0784098800052 0 0 0
1606 108 1 0 -1541.4522129342363 -673.2715198120223 -1064.1881950902214 0 0 0
1615 108 10 1 -1238.904715407482 -668.7743341119977 -1099.694213366655 0 0 0
1612 108 7 2 -1202.7880029354897 -618.6585107990276 -1107.436522162396 0 0 0
2656 178 1 0 -194.44033750585498 -644.3323491510017 -1118.5215504313935 0 0 0
253 17 13 -0.5 -1203.8793876703746 -578.9662012444334 -1111.8418939188246 0 0 0
1616 108 11 1 -1171.0593158676077 -574.5143442193144 -1109.2839969869276 0 0 0
243 17 3 -1.5 -1188.0144131301586 -562.8281537396693 -1075.576526390828 0 0 0
1614 108 9 0 -1122.8190839493523 -529.3756415982068 -1101.1489485439558 0 0 0
5529 369 9 0 -2584.846878756097 -455.89257931439647 -1078.6320040840997 0 0 0
252 17 12 0 -1157.4761086788449 -522.4393580623504 -1068.7477181586944 0 0 0
1611 108 6 -0.5 -1082.2583732723006 -494.1709083542817 -1116.0871193335854 0 0 0
250 17 10 1 -1109.4160952763546 -485.8612713424613 -1092.042281883707 0 0 0
247 17 7 2 -1060.177065517378 -455.1140803720717 -1111.473637636947 0 0 0
5057 338 2 0 -776.258536680174 -461.6832007896205 -1053.876165806701 0 0 0
5059 338 4 0 -747.8838495242306 -495.60394747313643 -1066.369360217471 0 0 0
242 17 2 0 -830.898132789453 -418.6130247670768 -1114.4847031584882 0 0 0
244 17 4 0 -774.6938779897679 -412.3806520809396 -1088.9788277783389 0 0 0
918 62 3 -1.5 -944.0212369472238 -347.92139095479683 -1111.9948027101136 0 0 0
927 62 12 0 -894.2712710328074 -353.3480839641127 -1122.8245809143402 0 0 0
925 62 10 1 -837.8640442085918 -361.94034621165156 -1095.4794979959647 0 0 0
3388 226 13 -0.5 -809.3494527180318 -374.81596556048936 -1092.3982974542612 0 0 0
3378 226 3 -1.5 -774.1899676892996 -353.99589838798397 -1103.8385025135842 0 0 0
922 62 7 2 -783.6095557631095 -361.43564050391984 -1067.3875659032037 0 0 0
5069 338 14 -1.5 -745.8242936347863 -366.70628259188027 -1067.118832521214 0 0 0
3387 226 12 0 -740.9311753383934 -320.1920014334738 -1082.7056052191522 0 0 0
3385 226 10 1 -684.181317504455 -312.4290253310533 -1060.2790194783365 0 0 0
930 62 15 0 -596.4657238589879 -327.86551225455923 -1057.249151035845 0 0 0
917 62 2 0 -531.7204314617695 -319.03518409571825 -1080.1063194866429 0 0 0
5065 338 10 1 -975.1728381357943 -230.97824534217105 -1077.035110825072 0 0 0
5062 338 7 2 -917.5767649829802 -252.30518859629683 -1073.6174938275742 0 0 0
5066 338 11 1 -870.8317595578839 -275.79064154008154 -1062.7355708427735 0 0 0
3124 209 4 0 -865.1784188792035 -229.4184611298484 -1053.8144600317348 0 0 0
919 62 4 0 -482.38804923614174 -278.1833786618968 -1093.370602885328 0 0 0
5058 338 3 -1.5 -1076.5377738019447 -208.0997650570713 -1119.6714454239236 0 0 0
3131 209 11 1 -1066.5692766387403 -168.15906592043893 -1105.2140497844512 0 0 0
5067 338 12 0 -1032.9587415821973 -210.28684745628004 -1090.1454613473181 0 0 0
3129 209 9 0 -1000.9808850412932 -174.02573785737326 -1108.3777784416584 0 0 0
3135 209 15 0 -976.12252303197 -183.75916649315525 -1073.3991751069336 0 0 0
3134 209 14 -1.5 -914.8069290513098 -217.03621651427187 -1093.97946127209 0 0 0
3126 209 6 -0.5 -947.4898758799746 -190.07438786452983 -1106.3745508615107 0 0 0
5435 363 5 0 -585.7398732398627 -162.97740967125506 -1063.5867852904032 0 0 0
3125 209 5 0 -1313.6809078103638 -136.19681482737184 -1113.1174779786043 0 0 0
3132 209 12 0 -1219.1095689900942 -87.31100588252144 -1080.7438647924723 0 0 0
3130 209 10 1 -1172.3309183408055 -125.37203649378682 -1097.8379089149241 0 0 0
3127 209 7 2 -1115.7724641550897 -147.9228156070554 -1106.2040892028022 0 0 0
5438 363 8 0 -609.7208451437026 -133.38390173039699 -1102.3848501587258 0 0 0
652 44 7 2 -167.69418033425194 -119.98880901103517 -1093.6529787973825 0 0 0
3133 209 13 -0.5 -1270.8290378898582 -20.553262449888315 -1093.7775089149495 0 0 0
3123 209 3 -1.5 -1236.2867429283538 -40.62925405222261 -1079.2913007802854 0 0 0
3109 208 4 0 -955.4242616687077 361.1749216184543 -1110.0436001078679 0 0 0
3107 208 2 0 -926.4967003038231 332.158726338769 -1063.1821914980167 0 0 0
1305 87 15 0 -788.988768707441 354.441075406611 -1061.8105389523673 0 0 0
1292 87 2 0 -723.1090294250605 335.44181517211484 -1077.8003341375693 0 0 0
1294 87 4 0 -665.0774905141917 327.9916780668197 -1064.9516738852894 0 0 0
3027 202 12 0 -751.8018519128798 395.25771976505973 -1056.5299260735164 0 0 0
3025 202 10 1 -690.1217420003517 407.00158298964425 -1072.3902834130924 0 0 0
3022 202 7 2 -629.931785805146 407.33747973793527 -1085.8048388653497 0 0 0
2391 160 6 -0.5 -619.4857083388465 418.24991242194574 -1055.0881460031303 0 0 0
2399 160 14 -1.5 -599.3898037318098 427.614646554359 -1093.9164517993208 0 0 0
3026 202 11 1 -578.3601101826421 408.05137547861574 -1101.2721124856637 0 0 0
3024 202 9 0 -515.3182643907382 424.67499976298126 -1118.7589651804474 0 0 0
3030 202 15 0 -458.10045199501286 432.0499235498697 -1075.2889271636075 0 0 0
2387 160 2 0 -665.4301807447854 492.52455593243786 -1117.672450407289 0 0 0
2400 160 15 0 -657.2824944865507 450.0835538536731 -1068.115932993059 0 0 0
5161 345 1 0 -2020.273065371672 555.1402448147712 -1052.1282820225445 0 0 0
3511 235 1 0 -1517.0154604818017 695.6190261850336 -1115.196409076791 0 0 0
3518 235 8 0 -1483.8198483238587 699.1066949267897 -1068.7394636359793 0 0 0
5175 345 15 0 -2023.6558348721346 940.6783434265093 -1077.5622231413115 0 0 0