LAMMPS data file via write_data, version 27 Jun 2024, timestep = 12160000, units = real

5730 atoms
15 atom types
5512 bonds
16 bond types
5730 angles
15 angle types

-3000 3000 xlo xhi
-1500 1500 ylo yhi
-1500 1500 zlo zhi

Masses

1 241.19
2 73.54000000000001
3 330.71
4 235.16
5 68.06999999999999
6 353.53
7 223.38
8 41.1
9 216.91
10 155.15
11 147.32
12 264.65
13 300.8
14 326.05
15 85.20999999999999

Pair Coeffs # lj/cut/coul/debye/gpu

1 0.71637 40.7505
2 0.665709 48.1397
3 1.15033 39.2216
4 0.726774 43.8077
5 0.514724 53.3428
6 1.17127 41.7847
7 1.2256 38.5601
8 0.675431 54.5696
9 1.26117 43.78
10 0.939007 42.5209
11 0.960667 41.1825
12 1.30988 48.0761
13 1.36645 37.7114
14 1.35529 39.2179
15 0.592003 47.2602

Bond Coeffs # harmonic

1 0.003 59.228
2 0.008 56.48
3 0.001 69.324
4 3.207 42.88
5 0.11 49.807
6 0.002 74.968
7 0.001 91.635
8 0.145 54.383
9 2.709 44.406
10 1.71 61.679
11 1.625 54.051
12 0.207 66.185
13 0.002 64.76
14 0.079 63.886
15 0.2 40
16 0.2 40

Angle Coeffs # harmonic

1 11.427 158.273
2 50.464 132.042
3 8.207 156.514
4 92.705 149.394
5 100 174.44
6 3.15 145.53
7 48.938 159.031
8 17.401 129.945
9 15.735 56.441
10 60 172.254
11 60.285 168.396
12 11.83 99.091
13 150 107.995
14 27.746 149.925
15 7.483 160.775

Atoms # full

2410 161 10 1 -2213.8778059286556 -1487.7882734533089 -1494.9246413563828 0 0 0
3623 242 8 0 -313.71963878081385 -1364.1681920076442 -1429.9642358607578 0 0 0
3616 242 1 0 -312.8864706989876 -1346.8131359012377 -1469.2802514592083 0 0 0
3771 252 6 -0.5 -1703.607085777679 -1233.6408906937813 -1499.485962387905 0 0 0
2564 171 14 -1.5 -1177.0995061697486 -1232.8285753596167 -1496.590830839675 0 0 1
3774 252 9 0 -1739.0221825205363 -1194.9342641769895 -1481.1330564333837 0 0 0
3776 252 11 1 -1786.4990805061873 -1169.7929562816082 -1441.72370944468 0 0 0
1815 121 15 0 -2328.7736962675544 -726.1403788048478 -1459.5319087185037 0 0 0
1802 121 2 0 -2283.9535656167554 -718.3074194460296 -1497.5818397320857 0 0 0
2926 196 1 0 -2551.9231581482472 -501.7575627255242 -1458.9082148565928 0 0 0
2594 173 14 -1.5 -1693.583491539429 -406.44337885028517 -1461.724317049809 0 0 1
2595 173 15 0 -1631.0488737766161 -428.00150053673286 -1492.707678849279 0 0 1
2929 196 4 0 -2207.8929793145694 -264.57709674208536 -1433.3417833942478 0 0 0
653 44 8 0 -306.17692625220667 -190.1199596808204 -1475.8252617205076 0 0 0
1071 72 6 -0.5 -379.5994242263636 -140.86478215158942 -1493.9190291884738 0 0 1
650 44 5 0 -331.2208564957514 -144.60557819097718 -1438.7793656098718 0 0 0
1079 72 14 -1.5 -347.8418856787606 -109.94894404597459 -1497.117865374985 0 0 1
648 44 3 -1.5 -345.61242375937945 -16.947208118239452 -1442.8989433192157 0 0 0
658 44 13 -0.5 -342.11366051362296 24.60871069081082 -1455.9296235084523 0 0 0
4921 329 1 0 -1809.2281941668955 261.34859585526107 -1460.8548861790496 0 0 0
4928 329 8 0 -1824.467821836512 329.0214387136741 -1469.2207353848867 0 0 0
4925 329 5 0 -1808.2951516877906 410.0387897532379 -1487.9734185371078 0 0 0
4930 329 10 1 -1894.5798543175258 534.3497436386858 -1470.8348810256257 0 0 0
1418 95 8 0 -1668.9427574313092 646.8042290913886 -1446.8767349923921 0 0 0
1411 95 1 0 -1700.0189585497208 678.2811945168262 -1450.1776869098662 0 0 0
4088 273 8 0 -1025.676247767785 925.499057002266 -1435.8353731498387 0 0 0
4081 273 1 0 -1008.4077302090345 922.4311661627975 -1497.857216640557 0 0 0
4473 299 3 -1.5 -2129.1298557826976 980.924057568959 -1491.8982428375498 0 0 0
4482 299 12 0 -2082.3826209949834 976.2338711191467 -1480.5283446158928 0 0 0
4480 299 10 1 -2038.2714708392361 994.6362994486883 -1442.4575297164388 0 0 0
2407 161 7 2 -2198.4797420100144 1496.0535312607565 -1437.8399309997349 0 -1 0
3620 242 5 0 -270.90411130366107 -1375.1068444360744 -1367.1044606147236 0 0 0
3772 252 7 2 -1813.039340818629 -1146.990361649471 -1400.8079797206944 0 0 0
3775 252 10 1 -1843.7257468371695 -1115.783604607464 -1357.124333820477 0 0 0
1814 121 14 -1.5 -2372.18771023527 -782.3215953465077 -1382.8175372071307 0 0 0
1809 121 9 0 -2404.0158501535107 -699.3112521423541 -1413.776703423481 0 0 0
1806 121 6 -0.5 -2374.2187656101437 -739.7607630444355 -1393.1807294330574 0 0 0
1807 121 7 2 -2497.4814556872734 -631.390605369691 -1404.1978397081969 0 0 0
1811 121 11 1 -2452.676974537621 -656.9872534818817 -1417.4874562478954 0 0 0
1812 121 12 0 -2593.6767880587254 -551.8851748356722 -1376.1461269228982 0 0 0
1810 121 10 1 -2547.6222916639495 -598.0622396938663 -1391.353859908121 0 0 0
2933 196 8 0 -2590.139234579511 -475.6360124771394 -1424.0898950066526 0 0 0
1813 121 13 -0.5 -2608.9460727761684 -464.7296362360827 -1379.4327379760707 0 0 0
1803 121 3 -1.5 -2619.178974179903 -506.12092897901124 -1381.3402053667073 0 0 0
2584 173 4 0 -1632.8376975888416 -452.03366089929875 -1357.172626155913 0 0 1
2582 173 2 0 -1619.6698989224042 -448.5105581381457 -1412.69175076575 0 0 1
2927 196 2 0 -2239.044080968113 -261.2379366777312 -1384.8846077463566 0 0 0
965 65 5 0 -2790.510252483133 -207.5666807338764 -1395.0366096444664 0 0 0
968 65 8 0 -2861.982627062652 -143.8065972129417 -1393.1014656192558 0 0 0
964 65 4 0 -2420.6552920208865 -139.36562417689373 -1371.6872038874262 0 0 0
657 44 12 0 -331.00187502097344 -33.58143671938198 -1396.6895722144159 0 0 0
1051 71 1 0 -486.9868663591379 265.3832212120361 -1424.678976159933 0 0 0
1058 71 8 0 -493.6420217158891 303.9332212011476 -1402.8818695546527 0 0 0
1055 71 5 0 -522.608770438989 373.86821176968266 -1411.6269951742358 0 0 0
1062 71 12 0 -533.0675413841577 442.49753488646996 -1374.5879193646642 0 0 0
1053 71 3 -1.5 -580.7674063895842 448.8152906545303 -1376.2790900266625 0 0 0
1423 95 13 -0.5 -1608.4438329667378 481.67081743354487 -1391.95805278913 0 0 0
1413 95 3 -1.5 -1606.2006045204625 520.7036254108656 -1373.8373278257602 0 0 0
1060 71 10 1 -475.0683879313185 464.6723218765899 -1361.4230023821942 0 0 0
4931 329 11 1 -1948.7568746728625 569.814074491782 -1375.323976325887 0 0 0
4927 329 7 2 -1921.3129744235223 550.5345770449873 -1417.2999581197053 0 0 0
1422 95 12 0 -1568.5798294063954 554.8065292572259 -1380.862542796518 0 0 0
1415 95 5 0 -1623.411372029135 615.2958022226717 -1407.9176839648103 0 0 0
4085 273 5 0 -1009.7909533290641 951.2895714921641 -1378.190687802241 0 0 0
4477 299 7 2 -1990.343551376839 1009.0850839779972 -1405.3249827144089 0 0 0
4481 299 11 1 -1950.2419757364996 1026.522839447043 -1372.7674943484155 0 0 0
4472 299 2 0 -1803.252054198677 996.4986004588839 -1354.4201818229042 0 0 0
4484 299 14 -1.5 -1794.3511834698743 1047.8333519692885 -1350.6063536224628 0 0 0
4474 299 4 0 -1760.4028274864038 999.2810841284231 -1377.5677868292023 0 0 0
4652 311 2 0 -1009.9398323473881 1066.475796621414 -1369.2034931962576 0 0 0
4654 311 4 0 -968.0877432706244 1056.4722145602675 -1410.934332271512 0 0 0
2411 161 11 1 -2180.411242832016 1488.9559621738217 -1387.349516194322 0 -1 0
2415 161 15 0 -2130.9483837563316 -1478.6323320291128 -1280.1588387243526 0 0 0
3777 252 12 0 -1883.3535097913852 -1079.6579661623302 -1322.4946793141596 0 0 0
3768 252 3 -1.5 -1925.0050291508726 -1053.1524374900046 -1310.2900647157205 0 0 0
1805 121 5 0 -2594.641038839049 -533.3956694701161 -1293.6306197479423 0 0 0
248 17 8 0 -1255.136925440533 -534.1593810243485 -1301.6153798935447 0 0 0
241 17 1 0 -1301.2933065434395 -489.1424688613663 -1315.537308356505 0 0 0
2930 196 5 0 -2572.186553399295 -420.11359059668763 -1345.4997419315443 0 0 0
2938 196 13 -0.5 -2625.4378674370328 -307.67238895288324 -1310.7407716302007 0 0 0
2937 196 12 0 -2546.9139940614596 -311.303904849763 -1286.5457377890555 0 0 0
2935 196 10 1 -2483.538186757787 -303.8544282372446 -1281.0499796400459 0 0 0
974 65 14 -1.5 -2426.0674713840867 -319.70355841388505 -1289.9583229382868 0 0 0
973 65 13 -0.5 -2833.806908535206 -293.74787935756945 -1312.844686603555 0 0 0
963 65 3 -1.5 -2795.8680533171296 -288.5330361745599 -1293.9238722065356 0 0 0
972 65 12 0 -2756.4942973997217 -268.05797876841484 -1311.0722388859792 0 0 0
970 65 10 1 -2694.2784939899984 -272.00338566832096 -1316.5426212633654 0 0 0
967 65 7 2 -2632.613879221547 -271.06155443383693 -1322.7499759907575 0 0 0
2928 196 3 -1.5 -2594.4225475396406 -298.0704810476301 -1282.2102092617608 0 0 0
971 65 11 1 -2579.192083783761 -275.2280449272271 -1324.1234430101533 0 0 0
969 65 9 0 -2512.388507214754 -283.441119075687 -1314.6113509528177 0 0 0
975 65 15 0 -2471.3408710889335 -244.12388040245753 -1313.415270618776 0 0 0
966 65 6 -0.5 -2460.823810912965 -292.3048710937851 -1294.9716350617657 0 0 0
2932 196 7 2 -2425.886359804656 -281.23532764577465 -1281.247549187353 0 0 0
2936 196 11 1 -2372.5851702073137 -269.5554295200069 -1278.0649093771103 0 0 0
2940 196 15 0 -2278.209464899626 -242.07463919804474 -1331.4245283555883 0 0 0
2934 196 9 0 -2307.6614255159457 -266.9164725523259 -1289.935974828285 0 0 0
2931 196 6 -0.5 -2253.683701255896 -258.7782431030136 -1275.421341325634 0 0 0
2939 196 14 -1.5 -2217.694532828256 -231.93516224289104 -1276.0215264581097 0 0 0
962 65 2 0 -2451.463571528895 -178.74990541202425 -1337.109170187121 0 0 0
961 65 1 0 -2871.2686471297616 -104.57111012925856 -1334.9981628279772 0 0 0
655 44 10 1 -284.3407987545629 -32.78561359044252 -1348.0459835760232 0 0 0
652 44 7 2 -249.96182556485545 -34.6379189630841 -1297.0048289031834 0 0 0
1711 115 1 0 -273.3973945662779 201.71545841408485 -1338.0333078945448 0 0 0
1718 115 8 0 -337.8865282018325 235.24937606142907 -1296.5632369104712 0 0 0
1063 71 13 -0.5 -610.726665602168 436.12677484561084 -1348.4297112060015 0 0 0
1057 71 7 2 -422.21370674191627 490.24246183951067 -1341.0401110116813 0 0 0
1061 71 11 1 -377.7203178601521 514.537785850355 -1322.7971832179628 0 0 0
1052 71 2 0 -183.12001224096682 496.81535125175407 -1315.4435315860521 0 0 0
1054 71 4 0 -133.73345018033112 483.75618693003304 -1306.2217815716103 0 0 0
4929 329 9 0 -1982.2732002298358 584.5556822950135 -1320.0887667709137 0 0 0
1420 95 10 1 -1525.8939849954745 584.0301831172952 -1341.3967438688644 0 0 0
1059 71 9 0 -320.68741243901337 533.0814794098687 -1296.3285773948944 0 0 0
1065 71 15 0 -242.0894611810935 527.4743577877974 -1298.1425976315675 0 0 0
1056 71 6 -0.5 -276.17689728316634 565.2311722488912 -1284.628425287266 0 0 0
4926 329 6 -0.5 -2008.6551862487247 616.0679328011131 -1278.8751373561058 0 0 0
4935 329 15 0 -1955.7992069646928 637.9749305691531 -1283.9742839593773 0 0 0
1417 95 7 2 -1489.652321858742 621.5569418528406 -1308.6383937507192 0 0 0
1421 95 11 1 -1456.1659020387108 649.394819951377 -1277.4339082681588 0 0 0
4479 299 9 0 -1891.8051200915397 1041.0274962212984 -1343.6752673565375 0 0 0
4485 299 15 0 -1843.7415220234366 1007.6534784641741 -1343.4490790941825 0 0 0
4093 273 13 -0.5 -1143.3835048398673 979.9764070671041 -1300.8425439986622 0 0 0
4657 311 7 2 -1166.5321740544623 1006.1520529313697 -1282.8552319621574 0 0 0
4083 273 3 -1.5 -1101.5732402027124 975.6404275207619 -1290.094552797812 0 0 0
4092 273 12 0 -1061.789937757562 1006.3198434089387 -1294.9874176257852 0 0 0
4661 311 11 1 -1120.0545209625757 1031.4698426025016 -1295.6130252324408 0 0 0
4476 299 6 -0.5 -1837.0900717529676 1056.646689995281 -1342.1871706788586 0 0 0
4659 311 9 0 -1063.293276053356 1065.6945919585241 -1294.7509060771583 0 0 0
4665 311 15 0 -1024.9885920380725 1069.7951749617794 -1325.0629450354768 0 0 0
4656 311 6 -0.5 -1011.0429245308197 1078.7044227969363 -1298.2021552047884 0 0 0
5628 376 3 -1.5 -970.888105063372 1086.9838478095385 -1286.3388774732925 0 0 0
4664 311 14 -1.5 -970.8194947997562 1084.1290743021689 -1280.1424487905626 0 0 0
4234 283 4 0 -1854.6329450725489 1273.9529539347732 -1297.4092735320532 0 0 0
4231 283 1 0 -2234.111492178937 1448.321063039355 -1318.9689917182216 0 0 0
2409 161 9 0 -2161.202712785272 1486.0863404518263 -1326.7463853533545 0 -1 0
2406 161 6 -0.5 -2161.834039801626 1480.0132231056284 -1275.1152494024439 0 -1 0
3622 242 7 2 -155.04714270197903 -1450.7390462827343 -1248.0324092797014 0 0 0
3626 242 11 1 -105.87366235180221 -1469.952315544184 -1237.0824614284586 0 0 0
3624 242 9 0 -46.59543486889934 -1474.6227893837115 -1210.9991394936512 0 0 0
2402 161 2 0 -2083.266576872589 -1415.2357764239007 -1214.5703205416057 0 0 0
3618 242 3 -1.5 -304.26178473380014 -1362.3570139440737 -1251.1760471677194 0 0 0
3627 242 12 0 -256.3947399006232 -1381.9109363787938 -1263.3476065163795 0 0 0
3625 242 10 1 -210.49852849399562 -1424.2830658350872 -1257.60475780583 0 0 0
3628 242 13 -0.5 -315.51000747128995 -1322.122274642235 -1241.983655256489 0 0 0
3778 252 13 -0.5 -1947.7047592855392 -1050.3444540299286 -1273.5441341652734 0 0 0
3770 252 5 0 -1878.8228759813994 -1108.118837100965 -1231.315065992057 0 0 0
2656 178 1 0 -341.44172168358926 -709.7780676427873 -1201.9090847114078 0 0 0
1808 121 8 0 -2547.952836256037 -525.0664761574582 -1243.0634788972825 0 0 0
1801 121 1 0 -2498.3490933223693 -525.0452411959986 -1210.1220220037114 0 0 0
245 17 5 0 -1260.959698126329 -546.2673108222036 -1223.0089371958502 0 0 0
3121 209 1 0 -1065.854208828635 -79.6788589390944 -1253.389958771126 0 0 0
3128 209 8 0 -1082.9728152766384 -119.02571723920342 -1218.711203981244 0 0 0
656 44 11 1 -217.88990120911345 -43.031381490273304 -1253.90594609907 0 0 0
1715 115 5 0 -367.7709214681754 291.66108647401506 -1219.5392322347832 0 0 0
1714 115 4 0 -47.48421029699663 510.9730403200834 -1215.02236575038 0 0 0
1064 71 14 -1.5 -240.54493891757616 569.4270104280317 -1258.240091233841 0 0 0
4934 329 14 -1.5 -2044.9564611513958 625.1354661158015 -1253.9597589433727 0 0 0
4922 329 2 0 -1912.2297627053836 684.0056566916347 -1250.9854921289775 0 0 0
4924 329 4 0 -1878.7126010383492 724.2464577534383 -1237.0205850958212 0 0 0
1419 95 9 0 -1409.1567496428684 685.8981068286289 -1250.172860282886 0 0 0
1416 95 6 -0.5 -1382.392418389029 720.5158264119303 -1218.945961943848 0 0 0
1424 95 14 -1.5 -1343.8444573376314 739.441905092584 -1207.1719757802507 0 0 0
4693 313 13 -0.5 -2922.400690798726 821.9474062543978 -1249.7406519762328 0 0 0
4683 313 3 -1.5 -2887.5368117086523 829.698430327588 -1225.7646348750159 0 0 0
4663 311 13 -0.5 -1322.523017780764 889.1214210755596 -1210.294195135404 0 0 0
4653 311 3 -1.5 -1286.2166919188335 899.3963468937333 -1230.347380988738 0 0 0
4662 311 12 0 -1266.7674999629692 944.620887177454 -1238.8731767133304 0 0 0
4655 311 5 0 -1369.495701299718 1019.4171945103744 -1246.7681770435815 0 0 0
4660 311 10 1 -1215.9687469393516 979.5033963115138 -1257.5887839308962 0 0 0
4090 273 10 1 -1021.0778272998755 1041.8332506499873 -1267.1466373522603 0 0 0
5638 376 13 -0.5 -982.0041184615687 1048.1618753623072 -1273.2683964265786 0 0 0
4365 291 15 0 -1960.9650106331878 1098.3521411009538 -1211.6932687626277 0 0 0
4087 273 7 2 -974.5868596737025 1072.7532877836607 -1241.7054470231662 0 0 0
4091 273 11 1 -932.6122626126945 1094.799061793428 -1215.7787591032231 0 0 0
5637 376 12 0 -940.7712278071122 1121.1333984609407 -1261.1403321212613 0 0 0
4893 327 3 -1.5 -824.807582370123 1122.2176583300763 -1213.9336743608328 0 0 0
4361 291 11 1 -2063.1520856061466 1172.9317389053874 -1219.233080083341 0 0 0
4359 291 9 0 -2003.944064847187 1149.4271335888523 -1239.8567865590535 0 0 0
4239 283 9 0 -2019.5629111240223 1168.0216182002935 -1202.9106933924159 0 0 0
4236 283 6 -0.5 -1973.5240371608463 1139.5505925061238 -1207.6544408103784 0 0 0
4356 291 6 -0.5 -1950.090238223943 1147.3578511882108 -1242.3997610330287 0 0 0
4245 283 15 0 -1946.3928668902954 1197.1699719037852 -1246.5154111759693 0 0 0
4364 291 14 -1.5 -1912.6894284822129 1133.1949148680383 -1224.492127549416 0 0 0
5630 376 5 0 -1009.8294551421774 1163.7542228906063 -1232.6530221200817 0 0 0
5635 376 10 1 -889.0695747845521 1149.4694181046564 -1238.9221133206534 0 0 0
5632 376 7 2 -836.6830810651403 1168.9487971484077 -1213.1470491721143 0 0 0
4903 327 13 -0.5 -858.7228455498422 1141.9853832461542 -1230.5905107240342 0 0 0
4183 279 13 -0.5 -828.9603206976893 1132.4212552824222 -1227.452453802258 0 0 0
4173 279 3 -1.5 -786.2723980888437 1136.9130464565371 -1227.5846847641305 0 0 0
4094 273 14 -1.5 -797.0468834806744 1170.8492942759788 -1208.1556036970837 0 0 0
4182 279 12 0 -748.2137446806046 1162.5598472253653 -1203.620511613603 0 0 0
4268 285 8 0 -667.2107335744407 1171.10930217011 -1248.6734040592198 0 0 0
4232 283 2 0 -1878.9773500140623 1236.851423393936 -1265.705711693537 0 0 0
4175 279 5 0 -776.2883960509838 1257.5587635383129 -1215.4957836234664 0 0 0
4261 285 1 0 -730.7860471829796 1206.8273422796376 -1238.3474160434944 0 0 0
4265 285 5 0 -616.8454463660721 1209.964045459663 -1215.7969534043125 0 0 0
4178 279 8 0 -803.7323614089871 1314.161269700977 -1225.9442933636199 0 0 0
3619 242 4 0 -15.88446414505651 1315.794535156986 -1209.1811045602037 0 -1 0
4171 279 1 0 -817.2576418616047 1377.9697489988434 -1269.98640616362 0 0 0
4238 283 8 0 -2214.923549222752 1473.1255524750768 -1255.9665467069244 0 0 0
2414 161 14 -1.5 -2150.2018889748015 1453.839745431243 -1241.1872574877084 0 -1 0
2404 161 4 0 -2070.22682790217 -1403.2696575113594 -1161.4784494038188 0 0 0
3773 252 8 0 -1871.626646774151 -1116.721169237421 -1164.3502573288233 0 0 0
2664 178 9 0 -4.777355911178736 -806.5069623968445 -1142.6390674189038 0 0 0
2663 178 8 0 -329.87146546849544 -701.3185978823337 -1131.0915288341869 0 0 0
1618 108 13 -0.5 -1497.6560266117413 -642.1123302469892 -1192.6539192315872 0 0 0
1608 108 3 -1.5 -1482.152351993668 -629.8369962093338 -1154.2770652978222 0 0 0
916 62 1 0 -872.1438698564662 -634.1671522247309 -1147.748629489005 0 0 0
1617 108 12 0 -1451.0651089816627 -596.9890066226432 -1132.9806136024702 0 0 0
1615 108 10 1 -1393.5090267693104 -566.8702755322659 -1136.8516955197877 0 0 0
243 17 3 -1.5 -1299.7206591045017 -576.27555712954 -1159.361351201704 0 0 0
1612 108 7 2 -1336.7204428711193 -550.0640774404123 -1153.5164624841768 0 0 0
1616 108 11 1 -1284.8888133534476 -536.7650629895909 -1163.0281679202635 0 0 0
253 17 13 -0.5 -1335.9736124407489 -580.7540617316939 -1181.7496583299956 0 0 0
252 17 12 0 -1252.2885148459538 -573.3784739741292 -1172.6158224546436 0 0 0
1614 108 9 0 -1218.6271802609824 -531.8473052364005 -1176.4888054411892 0 0 0
250 17 10 1 -1191.4136179245604 -561.978767601667 -1153.762735552703 0 0 0
1611 108 6 -0.5 -1165.8979069383615 -544.19971520613 -1184.6850816155356 0 0 0
247 17 7 2 -1132.3778663085009 -545.0910640387852 -1143.299092676882 0 0 0
1619 108 14 -1.5 -1124.1526525708778 -530.7942196617915 -1179.641813542911 0 0 0
251 17 11 1 -1083.2798937708742 -527.8069022079854 -1127.0847037368767 0 0 0
1620 108 15 0 -1165.6992479217663 -511.4481436108493 -1136.632021014622 0 0 0
3125 209 5 0 -1125.2441622140307 -116.30342982933779 -1150.8881741164332 0 0 0
5069 338 14 -1.5 -650.2274143704302 -69.55748746766734 -1132.446667858502 0 0 0
654 44 9 0 -195.23905896544878 -54.94361059537661 -1192.3284284921629 0 0 0
651 44 6 -0.5 -187.57921255384525 -42.95581169689348 -1139.3046556444358 0 0 0
660 44 15 0 -147.24462969385 -65.69267604622455 -1174.7821336749546 0 0 0
1713 115 3 -1.5 -421.8852435621298 291.29164795536883 -1132.769859300763 0 0 0
1722 115 12 0 -373.7666532009742 303.543528957362 -1135.8484307840665 0 0 0
1712 115 2 0 -84.61603839581318 487.3177563646168 -1189.6995880867526 0 0 0
1725 115 15 0 -119.52406882567291 467.5209875763152 -1153.4926954540688 0 0 0
1412 95 2 0 -1406.4398125942273 667.2392984196413 -1133.2671790506092 0 0 0
4688 313 8 0 -2971.6400790718944 676.3481117928902 -1184.349594011822 0 0 0
4685 313 5 0 -2919.02287580516 738.2810144571545 -1185.559695728715 0 0 0
1425 95 15 0 -1390.7099655520549 676.142763158834 -1185.371332037401 0 0 0
4692 313 12 0 -2875.7945151854947 817.9794026430073 -1177.502368832601 0 0 0
4069 272 4 0 -2370.5565494840107 840.9569141423693 -1129.2580497879871 0 0 0
4354 291 4 0 -1955.0235077528093 1021.3672218329328 -1165.1358436098074 0 0 0
4658 311 8 0 -1430.0057482950658 1045.7031650447286 -1194.1191889986055 0 0 0
4084 273 4 0 -720.9711370959305 1000.82405973484 -1137.2413840374543 0 0 0
4352 291 2 0 -1965.2733798225388 1064.4336358318326 -1196.2611524912434 0 0 0
4651 311 1 0 -1438.6423358040233 1075.7915433266 -1154.3403492665936 0 0 0
4095 273 15 0 -840.4186155687563 1113.6161233965145 -1169.8446865666733 0 0 0
4082 273 2 0 -750.7004448942678 1052.1814168621977 -1148.5348406904359 0 0 0
4244 283 14 -1.5 -1934.6059809939395 1128.996244357944 -1188.7124667834723 0 0 0
5633 376 8 0 -1074.367457890248 1174.2394015244017 -1171.0375279350096 0 0 0
4089 273 9 0 -881.112339326137 1129.3062497335277 -1192.7078359405066 0 0 0
4086 273 6 -0.5 -835.1582764063486 1158.8144716223796 -1188.5700926978182 0 0 0
4902 327 12 0 -794.8857143246612 1134.8173140429506 -1177.3685037056368 0 0 0
5636 376 11 1 -793.4982409705775 1183.307426175713 -1184.0713234801185 0 0 0
4180 279 10 1 -690.8338685802573 1164.8457132911983 -1176.0020412193755 0 0 0
4900 327 10 1 -737.9516665511302 1155.8653719136942 -1156.7572654217806 0 0 0
4897 327 7 2 -684.8447802826727 1180.976632116595 -1137.1656185127042 0 0 0
5631 376 6 -0.5 -683.7840200078974 1197.6115919845702 -1140.6534879588396 0 0 0
4177 279 7 2 -639.4904944822825 1174.3147272305362 -1144.2316517818654 0 0 0
5374 359 4 0 -224.11384373384317 1159.718653362286 -1125.9068260654708 0 0 0
4357 291 7 2 -2105.394925364391 1200.0440015632075 -1198.408462603899 0 0 0
4360 291 10 1 -2143.244722515449 1239.6251374128303 -1170.4456122796928 0 0 0
4241 283 11 1 -2058.7265681844174 1217.0269410192227 -1182.3992628256774 0 0 0
4237 283 7 2 -2091.3249307607953 1252.3086175511219 -1158.4680916524405 0 0 0
5626 376 1 0 -1131.2225199540023 1210.2760957736573 -1126.4477797798727 0 0 0
5634 376 9 0 -733.3906799311198 1202.8752126115544 -1161.716736806476 0 0 0
5383 359 13 -0.5 -687.5393969366186 1219.2947707581473 -1155.0052876661873 0 0 0
4273 285 13 -0.5 -686.8381035828021 1218.9156041185192 -1129.7415228247767 0 0 0
5382 359 12 0 -604.508750784093 1210.3595102927243 -1154.911105655474 0 0 0
5373 359 3 -1.5 -647.6488104373481 1235.4819226143022 -1159.3464460766427 0 0 0
4272 285 12 0 -612.2379082480575 1258.3680098718437 -1136.2348650448043 0 0 0
5380 359 10 1 -543.1019715525852 1225.4032651131752 -1144.375925208996 0 0 0
4270 285 10 1 -547.6804373013151 1274.0805549045392 -1126.7653596827677 0 0 0
5377 359 7 2 -484.75737633714755 1240.2023863148877 -1131.535119679715 0 0 0
4184 279 14 -1.5 -445.4753088217003 1237.411528501086 -1128.63817635921 0 0 0
5381 359 11 1 -432.8924623273772 1251.3635441674455 -1125.4707567900894 0 0 0
5379 359 9 0 -369.9041223554406 1269.99463277872 -1125.0990545954442 0 0 0
4362 291 12 0 -2182.6020626631544 1290.127711845818 -1156.4216613561507 0 0 0
4353 291 3 -1.5 -2221.2521446086384 1319.7276014479105 -1165.0973741590449 0 0 0
4240 283 10 1 -2132.681449524468 1295.3729774837827 -1140.0486512545565 0 0 0
4363 291 13 -0.5 -2233.648824640029 1353.4798576024039 -1141.8592970016548 0 0 0
4355 291 5 0 -2128.52238896191 1372.5011812929204 -1131.4086756324652 0 0 0
3617 242 2 0 -31.902366791427703 1370.0825642428877 -1198.2357633269485 0 -1 0
4235 283 5 0 -2189.06785259179 1431.8831670084471 -1195.6835867639477 0 0 0
3630 242 15 0 -24.392097666926627 1470.707332311156 -1191.7202157900333 0 -1 0
4351 291 1 0 -2068.01072867333 -1493.9442904098946 -1100.8760455297818 0 1 0
3766 252 1 0 -1851.9289678282043 -1076.2332610094104 -1103.3495724065922 0 0 0
3751 251 1 0 -412.8944216932679 -907.1560753425633 -1055.0113680406143 0 0 0
2668 178 13 -0.5 -304.0296005017221 -856.5384996460238 -1103.0823109537453 0 0 0
2658 178 3 -1.5 -276.5893054505372 -850.1257122256546 -1070.6243468052148 0 0 0
2667 178 12 0 -234.53298473109993 -820.5252481269373 -1066.4029754194946 0 0 0
2665 178 10 1 -175.56995341792103 -820.1338338079116 -1086.6390283396836 0 0 0
2662 178 7 2 -114.38476344191305 -824.0483735714485 -1100.7701926868137 0 0 0
2666 178 11 1 -64.08078933488636 -819.9139010609699 -1117.5498044983785 0 0 0
2660 178 5 0 -272.8429301529625 -749.5252719542217 -1087.3241358742143 0 0 0
5533 369 13 -0.5 -2602.761938176176 -638.2007556740305 -1089.7966615148907 0 0 0
5523 369 3 -1.5 -2569.0066569380433 -613.9463922342502 -1078.2895292895937 0 0 0
923 62 8 0 -907.1179156821403 -612.5344559480435 -1094.2599810409702 0 0 0
1609 108 4 0 -1046.1508783705046 -542.0311520574337 -1059.1550674245098 0 0 0
920 62 5 0 -899.6297829452913 -557.831898665233 -1059.730722280618 0 0 0
1613 108 8 0 -1578.9361419178576 -482.00503233611784 -1077.7738972732454 0 0 0
1606 108 1 0 -1623.3575575330926 -506.09689229910094 -1051.5833517947103 0 0 0
1610 108 5 0 -1524.009177698015 -515.4149796989159 -1121.6889467024262 0 0 0
1607 108 2 0 -1097.142311443981 -521.3915230968814 -1068.800309628531 0 0 0
249 17 9 0 -1026.2916336683047 -509.08180155782566 -1096.789768572601 0 0 0
246 17 6 -0.5 -985.4810577236548 -506.04759691708585 -1062.9520902841064 0 0 0
255 17 15 0 -1018.1462311931896 -492.6618678534284 -1050.4893121691284 0 0 0
5641 377 1 0 -1441.4576921522873 -315.48685802377344 -1069.169308416489 0 0 0
5433 363 3 -1.5 -503.22450100658256 -301.32995646559027 -1063.0583976910934 0 0 0
917 62 2 0 -602.206308410793 -289.0765404449481 -1090.637280944739 0 0 0
5443 363 13 -0.5 -539.0282200701957 -297.39664435542244 -1085.445265839584 0 0 0
919 62 4 0 -588.2726322864153 -250.20862922088435 -1111.7800986374746 0 0 0
3386 226 11 1 -578.4262618149642 -291.4892128938326 -1050.9559508147436 0 0 0
3384 226 9 0 -522.4142968956487 -255.63281510972595 -1052.2155167032897 0 0 0
3381 226 6 -0.5 -481.75631678992073 -220.5619705328011 -1067.524193697652 0 0 0
3389 226 14 -1.5 -469.47793431976345 -181.9961241581641 -1085.4459159918604 0 0 0
3123 209 3 -1.5 -1194.6137218307256 -86.50377225982444 -1060.6861403397652 0 0 0
3132 209 12 0 -1143.860702250261 -86.11776986222326 -1060.404234208473 0 0 0
5066 338 11 1 -786.6532185768623 -78.5195976667436 -1050.5426507762654 0 0 0
5064 338 9 0 -727.1621924031731 -85.1410241621031 -1077.4829581178103 0 0 0
5061 338 6 -0.5 -680.9237651187323 -91.04829665342494 -1108.356737396573 0 0 0
647 44 2 0 -104.91549688655275 -90.38542925710881 -1121.6080754440202 0 0 0
649 44 4 0 -60.54549933342288 -107.88260819989848 -1097.5223214581958 0 0 0
5070 338 15 0 -691.6586838651579 -55.175245959470026 -1075.8566337602101 0 0 0
5057 338 2 0 -624.6385559481791 -24.51951255552938 -1105.4227519073152 0 0 0
659 44 14 -1.5 -197.6115892192521 -21.35974468193011 -1102.2116232630965 0 0 0
5059 338 4 0 -583.7708484065299 21.658270541778702 -1112.7404187154502 0 0 0
1003 67 13 -0.5 -1159.9821972608852 255.71378875767633 -1053.7384588668258 0 0 0
1723 115 13 -0.5 -441.9506177286114 261.1051897348572 -1109.7982738248922 0 0 0
1720 115 10 1 -321.7692962739097 337.44834644863914 -1120.183643818747 0 0 0
1717 115 7 2 -271.47289759054405 372.8168140738267 -1115.03667366656 0 0 0
1298 87 8 0 -995.224401489927 446.526337203619 -1058.1419899514358 0 0 0
1291 87 1 0 -973.5550041531005 419.78036177002764 -1091.442975101509 0 0 0
1721 115 11 1 -227.45697633198324 404.4008696550928 -1116.2006342142413 0 0 0
1719 115 9 0 -177.9839335584358 451.905679435757 -1113.7449370501217 0 0 0
1716 115 6 -0.5 -147.43304197894727 496.43287019560756 -1097.9849610518418 0 0 0
1724 115 14 -1.5 -144.85346499629964 539.2216934120621 -1086.6739093168508 0 0 0
5165 345 5 0 -1978.3472821159578 606.6976551238045 -1064.9597576319047 0 0 0
5168 345 8 0 -1917.4681298622131 612.21634478461 -1071.6849278690222 0 0 0
5161 345 1 0 -1857.269381320121 644.0708912185361 -1081.8430272640253 0 0 0
1414 95 4 0 -1435.049148799198 675.8806400806058 -1085.3480338632219 0 0 0
4690 313 10 1 -2846.02306076702 822.4233515557698 -1123.8747340826774 0 0 0
4687 313 7 2 -2816.9951705109283 841.5435451659455 -1072.0711471232698 0 0 0
4067 272 2 0 -2378.635747240757 861.0465605574325 -1073.7134627201174 0 0 0
4066 272 1 0 -2707.084820256384 960.8721276726864 -1086.4357831608538 0 0 0
4073 272 8 0 -2729.8465698307737 913.4956545943757 -1053.4602613550276 0 0 0
4895 327 5 0 -834.7358000294419 1100.557050709264 -1108.0460486255135 0 0 0
4174 279 4 0 -401.3634308467161 1075.3978472974661 -1052.7968335824753 0 0 0
5375 359 5 0 -624.3617689828407 1136.689249161614 -1086.9176468281607 0 0 0
5639 376 14 -1.5 -656.4312138989725 1181.8505698003005 -1109.3339683042004 0 0 0
4181 279 11 1 -590.9551486546552 1180.9870777625576 -1121.6768632514074 0 0 0
4179 279 9 0 -528.9193314800373 1199.4929429057197 -1102.3761664957935 0 0 0
4185 279 15 0 -462.0083520259202 1169.8334913321737 -1057.622080898488 0 0 0
4172 279 2 0 -420.26242400005543 1125.969842858945 -1059.0063826918624 0 0 0
5372 359 2 0 -261.0592816577147 1189.3203638916414 -1103.998413897547 0 0 0
2183 146 8 0 -868.5556403308888 1268.0719089499546 -1050.3567189363887 0 0 0
5640 376 15 0 -708.9170149660384 1200.6491423198195 -1086.530448164729 0 0 0
4263 285 3 -1.5 -648.7786551501708 1230.6550180805095 -1114.9684818276655 0 0 0
4901 327 11 1 -642.9167004904036 1211.4742065723929 -1120.5110458244794 0 0 0
4899 327 9 0 -586.1514471425444 1241.5777782623684 -1103.721773517482 0 0 0
4896 327 6 -0.5 -533.5400486335154 1249.441245387291 -1091.0646405656043 0 0 0
4176 279 6 -0.5 -479.97350021955845 1220.647512826622 -1104.689427549131 0 0 0
4904 327 14 -1.5 -491.20224453229156 1236.262835898574 -1094.0098232769924 0 0 0
5385 359 15 0 -311.19850802397366 1221.9995548658112 -1097.0321698073947 0 0 0
4275 285 15 0 -346.6921183135826 1265.3937180519913 -1057.0252792841852 0 0 0
4242 283 12 0 -2183.0877586523065 1328.8519428285535 -1120.6129100770372 0 0 0
4243 283 13 -0.5 -2245.9450486940977 1343.4504437817043 -1065.3437937367391 0 0 0
4233 283 3 -1.5 -2229.3013107054812 1328.717593277453 -1101.9269148400842 0 0 0
2176 146 1 0 -869.4734616830806 1314.6140593427542 -1083.2865311083215 0 0 0
4267 285 7 2 -487.7130286980131 1276.4387585331085 -1111.2876439060467 0 0 0
4271 285 11 1 -437.8757739703441 1289.2056863143555 -1095.0677666877475 0 0 0
4269 285 9 0 -376.1419319283914 1308.3539422920912 -1084.8018606147716 0 0 0
5376 359 6 -0.5 -322.09058062251796 1292.519592877372 -1106.7911081848745 0 0 0