LAMMPS data file via write_data, version 27 Jun 2024, timestep = 25280000, units = real

5730 atoms
15 atom types
5636 bonds
16 bond types
5730 angles
15 angle types

-3000 3000 xlo xhi
-1500 1500 ylo yhi
-1500 1500 zlo zhi

Masses

1 241.19
2 73.54000000000001
3 330.71
4 235.16
5 68.06999999999999
6 353.53
7 223.38
8 41.1
9 216.91
10 155.15
11 147.32
12 264.65
13 300.8
14 326.05
15 85.20999999999999

Pair Coeffs # lj/cut/coul/debye/gpu

1 0.71637 40.7505
2 0.665709 48.1397
3 1.15033 39.2216
4 0.726774 43.8077
5 0.514724 53.3428
6 1.17127 41.7847
7 1.2256 38.5601
8 0.675431 54.5696
9 1.26117 43.78
10 0.939007 42.5209
11 0.960667 41.1825
12 1.30988 48.0761
13 1.36645 37.7114
14 1.35529 39.2179
15 0.592003 47.2602

Bond Coeffs # harmonic

1 0.003 59.228
2 0.008 56.48
3 0.001 69.324
4 3.207 42.88
5 0.11 49.807
6 0.002 74.968
7 0.001 91.635
8 0.145 54.383
9 2.709 44.406
10 1.71 61.679
11 1.625 54.051
12 0.207 66.185
13 0.002 64.76
14 0.079 63.886
15 0.2 40
16 0.2 40

Angle Coeffs # harmonic

1 11.427 158.273
2 50.464 132.042
3 8.207 156.514
4 92.705 149.394
5 100 174.44
6 3.15 145.53
7 48.938 159.031
8 17.401 129.945
9 15.735 56.441
10 60 172.254
11 60.285 168.396
12 11.83 99.091
13 150 107.995
14 27.746 149.925
15 7.483 160.775

Atoms # full

2554 171 4 0 -977.5745836918413 -1440.877870530238 -1454.2225034783505 0 0 1
2552 171 2 0 -1005.1352727790136 -1400.1316786252683 -1428.4933460325685 0 0 1
3769 252 4 0 -1536.163107229591 -1307.6447760465326 -1477.7572599896419 0 0 0
3767 252 2 0 -1562.3356932642719 -1300.463585468552 -1434.4282650764164 0 0 0
2564 171 14 -1.5 -989.3961989289794 -1295.3863819637422 -1461.8158577524282 0 0 1
3770 252 5 0 -1907.2212554133748 -1208.5835207988007 -1466.3344003840905 0 0 0
1082 73 2 0 -2458.0444197029756 -938.333022637397 -1483.3842697043324 0 0 1
1084 73 4 0 -2437.9067976210868 -933.0227524677263 -1441.5775460703446 0 0 1
1804 121 4 0 -2656.7174841866663 -658.4966496333949 -1462.9884274504413 0 0 0
1802 121 2 0 -2699.368384428957 -636.4089394418187 -1442.8862148133485 0 0 0
5704 381 4 0 -440.5071127743646 -649.5303812489111 -1451.3292140078504 0 0 1
5702 381 2 0 -436.7718267219382 -606.6749182137042 -1491.6242969973032 0 0 1
965 65 5 0 -2762.147012900604 -382.6769271379322 -1430.5173561144768 0 0 0
963 65 3 -1.5 -2640.9576249373545 -403.70802551416716 -1494.6374914409855 0 0 0
972 65 12 0 -2647.3105223865437 -375.41973349552586 -1453.5269734281098 0 0 0
2933 196 8 0 -2562.210164085019 -380.5684642806494 -1491.4894133501464 0 0 0
2930 196 5 0 -2529.797369041284 -318.0425711527522 -1469.902055910993 0 0 0
2594 173 14 -1.5 -1656.9929632689343 -312.39340568568707 -1438.605246764578 0 0 1
2586 173 6 -0.5 -1645.4801985624408 -307.76725614004806 -1481.3388327856132 0 0 1
2595 173 15 0 -1613.2581997090801 -263.0364770822278 -1466.9936688899884 0 0 1
646 44 1 0 -70.26452330887534 -20.62212547937688 -1428.3163309303782 0 0 0
1063 71 13 -0.5 -792.323015662664 192.96060468825988 -1426.369476056361 0 0 0
1055 71 5 0 -772.6154040153032 295.1661735326445 -1496.3863876022754 0 0 0
4927 329 7 2 -1780.9804040300342 514.3248881881744 -1457.2991358893414 0 0 0
5285 353 5 0 -2645.4958261574425 621.8465735120611 -1469.3509230255129 0 0 1
1414 95 4 0 -1742.079403013322 806.4049357570462 -1438.1336296282159 0 0 0
4480 299 10 1 -2108.0102371217777 1069.437251275874 -1453.0398627028546 0 0 0
4352 291 2 0 -2077.1016205952387 1101.7176139676144 -1468.355044247407 0 0 0
2412 161 12 0 -2351.1250894867617 1438.5889058713371 -1493.8987228880821 0 -1 0
2410 161 10 1 -2337.1011182342263 1441.9204095402172 -1428.9557101711057 0 -1 0
3774 252 9 0 -1650.2087256888772 -1285.4352636419057 -1354.6221462301073 0 0 0
3780 252 15 0 -1607.281258422955 -1306.907669478366 -1392.2694722768892 0 0 0
2556 171 6 -0.5 -996.6869239269116 -1289.9804378831845 -1418.6921338977718 0 0 1
2565 171 15 0 -1035.2306732999343 -1322.5410751355862 -1408.9874580172868 0 0 1
3775 252 10 1 -1813.1267162548047 -1207.7200080842974 -1359.2478754145743 0 0 0
3772 252 7 2 -1760.7319569889444 -1239.7982226625268 -1352.309937153909 0 0 0
3776 252 11 1 -1713.70512043762 -1266.2441175572553 -1351.0447122555483 0 0 0
2558 171 8 0 -1356.7253277952777 -1208.6913483755152 -1398.2202164182438 0 0 1
2561 171 11 1 -1074.0061702400499 -1227.6106583114233 -1351.6920832830751 0 0 1
2559 171 9 0 -1025.7808491862636 -1266.3630864925167 -1378.6535484018284 0 0 1
3777 252 12 0 -1869.1473678242344 -1184.567954567995 -1362.6905715847001 0 0 0
2551 171 1 0 -1389.098413654349 -1169.7697573376918 -1418.1429961935014 0 0 1
1814 121 14 -1.5 -2753.996724729729 -641.8433847109862 -1400.0167581447738 0 0 0
1806 121 6 -0.5 -2763.889734134969 -600.5042218472964 -1388.1269258621141 0 0 0
1815 121 15 0 -2740.8522899056015 -582.0788050803136 -1412.866691945324 0 0 0
1809 121 9 0 -2756.111900542731 -548.5431059337229 -1390.7433947571353 0 0 0
1811 121 11 1 -2728.6908519204194 -489.3223374800715 -1388.5201912485436 0 0 0
968 65 8 0 -2846.9845860322566 -402.407784651889 -1408.8949660922187 0 0 0
1807 121 7 2 -2701.008750957883 -444.43014540422996 -1377.8744810796588 0 0 0
1810 121 10 1 -2670.1453226245394 -391.69599061797425 -1369.920739538365 0 0 0
961 65 1 0 -2870.9830900940424 -354.5599011583916 -1422.741795160097 0 0 0
1812 121 12 0 -2633.3925889905836 -342.3394589935496 -1363.9743495140735 0 0 0
970 65 10 1 -2619.2282201000985 -334.9335188211111 -1411.5596972021583 0 0 0
1813 121 13 -0.5 -2551.896762839572 -319.7904609528866 -1385.0976744197433 0 0 0
1803 121 3 -1.5 -2588.7402175028137 -320.9795454683732 -1363.6042492576498 0 0 0
1805 121 5 0 -2682.018378097695 -277.1185606717558 -1375.1453633242193 0 0 0
967 65 7 2 -2582.6773684872423 -297.15342010658765 -1377.2985899055723 0 0 0
2928 196 3 -1.5 -2585.705576772533 -267.5053494654962 -1377.0041871114688 0 0 0
2938 196 13 -0.5 -2618.3673635114587 -290.142201455028 -1393.6612243230604 0 0 0
2937 196 12 0 -2544.8619532386956 -245.8817212157793 -1400.462686109613 0 0 0
971 65 11 1 -2544.311233383343 -268.28617468691306 -1352.9497585813087 0 0 0
2582 173 2 0 -1633.1864542423125 -286.1665553138048 -1383.6784205678898 0 0 1
1801 121 1 0 -2784.4968540965606 -195.6330596822775 -1382.7828784805088 0 0 0
1808 121 8 0 -2710.46913082446 -209.71368998171656 -1363.225296504436 0 0 0
2935 196 10 1 -2485.5915806766566 -224.10337265423746 -1380.0178608335427 0 0 0
962 65 2 0 -2393.460155121057 -223.18279124749972 -1361.6231464748334 0 0 0
964 65 4 0 -2337.706826179896 -223.92689692508546 -1382.1037953831385 0 0 0
653 44 8 0 -86.47466228830604 -62.947449891359376 -1385.6655020874778 0 0 0
1053 71 3 -1.5 -756.2853828458337 205.26047483888868 -1407.1061195849989 0 0 0
1062 71 12 0 -726.6440638147582 243.76099221117116 -1413.363634076979 0 0 0
1060 71 10 1 -668.783298138335 272.90572585224686 -1398.1389838672903 0 0 0
1723 115 13 -0.5 -579.3429069884227 285.48554724414316 -1373.5908025502504 0 0 0
1057 71 7 2 -616.4398012388768 302.7270747740733 -1385.2111579383964 0 0 0
1061 71 11 1 -571.3043015964473 331.35103688629243 -1376.2999822705058 0 0 0
1713 115 3 -1.5 -593.1873333921013 321.83322375771706 -1356.5896437780993 0 0 0
1722 115 12 0 -582.1453121809731 373.3355140546172 -1355.6878551560503 0 0 0
1059 71 9 0 -526.58519837854 376.1071608268995 -1353.2496167527959 0 0 0
1720 115 10 1 -545.7596711973466 423.21314332126303 -1373.5884345397942 0 0 0
1065 71 15 0 -496.407138595493 425.8228202263274 -1396.1110765324472 0 0 0
4931 329 11 1 -1791.9600767916622 503.6929519485516 -1405.7314675019463 0 0 0
1721 115 11 1 -485.49175778810695 521.0316088648068 -1386.4077708133318 0 0 0
1717 115 7 2 -517.8243284723736 477.7204812904375 -1382.2855527831125 0 0 0
1052 71 2 0 -474.48632569361405 478.88507343419434 -1394.273503733564 0 0 0
1054 71 4 0 -439.1462837111124 513.0221495725858 -1419.8795214996255 0 0 0
1712 115 2 0 -330.80790154090977 510.5636857077466 -1373.4536904406634 0 0 0
1714 115 4 0 -280.5755921446923 493.7998691609371 -1390.6615475720123 0 0 0
5281 353 1 0 -2617.2027017442033 554.8994985786599 -1353.048858861089 0 0 1
5288 353 8 0 -2615.7369586560844 582.7570365947778 -1404.213510990117 0 0 1
1719 115 9 0 -433.17799037898743 558.9425343669942 -1385.1166462075269 0 0 0
1725 115 15 0 -379.30973978484013 539.7048764885121 -1374.4322889377413 0 0 0
1716 115 6 -0.5 -400.04261379548734 596.3571915547855 -1363.7309700308604 0 0 0
1412 95 2 0 -1731.2360389055834 785.159735401062 -1381.6259869109529 0 0 0
4364 291 14 -1.5 -2066.105533924062 1040.6897946681997 -1386.7588793347245 0 0 0
4477 299 7 2 -2067.304154027098 1075.8133476110524 -1406.5219826806408 0 0 0
4481 299 11 1 -2035.5916539305983 1077.1394901446777 -1363.284813384322 0 0 0
4356 291 6 -0.5 -2039.6336199150578 1072.664591839099 -1370.0328588313168 0 0 0
4365 291 15 0 -2045.9441295229083 1119.5338532239027 -1411.7447509697438 0 0 0
2407 161 7 2 -2320.3425330251735 1458.5175719904194 -1372.4435208397051 0 -1 0
3771 252 6 -0.5 -1598.2686967770946 -1286.4236251954903 -1335.8351065602735 0 0 0
3779 252 14 -1.5 -1556.0326378170791 -1299.8941294827516 -1338.9731190870334 0 0 0
2555 171 5 0 -1308.3373856142853 -1201.8471300446893 -1329.5233677246717 0 0 1
2557 171 7 2 -1117.192205464684 -1205.4637857864018 -1329.2300225728109 0 0 1
3768 252 3 -1.5 -1906.431770672327 -1169.1605846550608 -1336.6501711858418 0 0 0
3778 252 13 -0.5 -1933.8438964046472 -1190.5772934171519 -1312.3508780874236 0 0 0
2562 171 12 0 -1219.103222222479 -1165.261651588762 -1275.861414937007 0 0 1
2560 171 10 1 -1170.5863438800197 -1183.7676931286073 -1308.439754337339 0 0 1
1620 108 15 0 -1174.6917773411358 -526.6762482829917 -1278.598205680014 0 0 0
1611 108 6 -0.5 -1184.0679214976294 -472.9142016713501 -1278.1997451825519 0 0 0
1609 108 4 0 -1072.4406630992257 -478.1143809864007 -1306.2512206935623 0 0 0
1607 108 2 0 -1116.5580548700548 -510.11984041846387 -1285.8499756825847 0 0 0
5533 369 13 -0.5 -2714.4312470308264 -441.6036809055501 -1338.2114348759599 0 0 0
5523 369 3 -1.5 -2695.8608679479626 -430.22231358369754 -1301.7302583631886 0 0 0
969 65 9 0 -2486.071383608323 -243.49690780214252 -1327.4077329577267 0 0 0
975 65 15 0 -2450.4772134245745 -243.17511094679037 -1344.0099093326312 0 0 0
2584 173 4 0 -1632.0938203962367 -275.19018570464766 -1336.669952657384 0 0 1
916 62 1 0 -976.398911825703 -250.8036371918981 -1334.2510518925612 0 0 0
923 62 8 0 -917.1795629593123 -292.5471701917003 -1289.6525806601423 0 0 0
2932 196 7 2 -2438.1562936802984 -200.8875128405405 -1348.297706456444 0 0 0
966 65 6 -0.5 -2446.079474790297 -207.62957752058398 -1317.7269499838517 0 0 0
974 65 14 -1.5 -2427.2356846065386 -168.95367979276244 -1328.3665790851098 0 0 0
2936 196 11 1 -2397.8988586928376 -178.47789250354825 -1319.2535487206615 0 0 0
2934 196 9 0 -2342.4509200103425 -151.9873731722515 -1293.7590992378086 0 0 0
2940 196 15 0 -2278.5407605219907 -177.1883413610884 -1275.305207341163 0 0 0
650 44 5 0 -81.02788612443528 -81.61453508337324 -1300.530063043335 0 0 0
4924 329 4 0 -1990.2899073751564 379.5287267092821 -1331.354950667116 0 0 0
4922 329 2 0 -1951.5643585531895 408.67997280947435 -1324.0589150499038 0 0 0
4935 329 15 0 -1874.895472243648 438.8383971924206 -1329.442913812006 0 0 0
4934 329 14 -1.5 -1848.1751742981023 431.0841599022709 -1278.6272032406757 0 0 0
1056 71 6 -0.5 -505.27131927641994 423.8098233852033 -1337.3048061096174 0 0 0
4929 329 9 0 -1815.4570028934156 485.6625507168029 -1347.0018564230136 0 0 0
4926 329 6 -0.5 -1823.9078561172767 458.06609212687755 -1304.1645682688777 0 0 0
1415 95 5 0 -1560.282175698812 484.2352446879218 -1326.9553603965658 0 0 0
1418 95 8 0 -1502.1446255231951 514.5672969588256 -1339.9309326534035 0 0 0
1411 95 1 0 -1443.7054900826208 512.6194888631605 -1315.99073530009 0 0 0
1064 71 14 -1.5 -501.4674868229678 467.0360899914263 -1347.9598083517026 0 0 0
1421 95 11 1 -1720.8852430427007 657.9842861856839 -1292.4423530281858 0 0 0
1417 95 7 2 -1697.6966511339745 612.1582933223789 -1275.88203375807 0 0 0
1724 115 14 -1.5 -360.74156530032684 601.6012935746351 -1342.953096216498 0 0 0
1419 95 9 0 -1756.8306165528868 713.0432780997438 -1305.6268939866804 0 0 0
4081 273 1 0 -1004.9476748653043 728.2857691805071 -1290.133982824038 0 0 0
1424 95 14 -1.5 -1814.4561090418993 788.9945844043292 -1305.4767224152868 0 0 0
1425 95 15 0 -1746.097476800126 754.7811072147089 -1341.3802903544727 0 0 0
1416 95 6 -0.5 -1779.821319546926 762.6051944038192 -1297.1708541067867 0 0 0
4244 283 14 -1.5 -2020.0038916791123 1045.4034200622787 -1342.4545784475363 0 0 0
4236 283 6 -0.5 -2038.8456358629571 1073.8849245912222 -1313.753058682606 0 0 0
4359 291 9 0 -2035.3733985194513 1121.0658984994432 -1341.6341071435063 0 0 0
4479 299 9 0 -1983.4867518046947 1075.6725046006256 -1323.5008428360034 0 0 0
4485 299 15 0 -1943.475026162508 1051.0010135426776 -1311.3111404353097 0 0 0
4476 299 6 -0.5 -1936.883626268891 1093.2180398742103 -1303.1522947081742 0 0 0
4484 299 14 -1.5 -1895.7783033003157 1082.1149014602381 -1290.1257350605056 0 0 0
4239 283 9 0 -2049.3295879451816 1125.2171850267414 -1297.3578041311987 0 0 0
4361 291 11 1 -2046.128240913989 1170.910490777253 -1301.2496613528162 0 0 0
4357 291 7 2 -2061.7402952804273 1215.4473029526232 -1275.4596889601883 0 0 0
4174 279 4 0 -471.4444863177944 1291.7078011142808 -1299.8873337098275 0 0 0
2411 161 11 1 -2308.8021543545046 1467.1932953872154 -1320.0173260071936 0 -1 0
2406 161 6 -0.5 -2295.802061162696 -1483.3863185201872 -1207.3870151006934 0 0 0
2415 161 15 0 -2282.447252102224 -1429.7774884520634 -1241.0998324970258 0 0 0
3621 242 6 -0.5 -174.7693377226901 -1465.1693289045515 -1229.3021539540127 0 0 0
3629 242 14 -1.5 -183.06552542910944 -1489.2676686817917 -1265.3255606255782 0 0 0
3630 242 15 0 -112.60397262694283 -1445.1174815992051 -1210.5536092845316 0 0 0
2402 161 2 0 -2267.7308725099456 -1375.4117899308462 -1207.7422655754215 0 0 0
2553 171 3 -1.5 -1238.7893172943525 -1157.436689955949 -1229.1715842569863 0 0 1
1618 108 13 -0.5 -1472.2505736331384 -689.7522745036067 -1209.6536274637394 0 0 0
1615 108 10 1 -1363.9805124674806 -602.728897338641 -1206.1817144468966 0 0 0
5528 369 8 0 -2793.290294707553 -552.7223198520069 -1242.0487622975406 0 0 0
1612 108 7 2 -1310.2884154492133 -579.2947602631983 -1226.9659319325333 0 0 0
253 17 13 -0.5 -1333.9567959899882 -557.3828011752997 -1201.5406623794754 0 0 0
243 17 3 -1.5 -1291.3558127298686 -551.5733749003161 -1201.0581516216184 0 0 0
1616 108 11 1 -1267.338894192163 -552.36878373387 -1245.3315291843614 0 0 0
5525 369 5 0 -2737.654533962317 -516.6604998461935 -1267.627892155824 0 0 0
1614 108 9 0 -1215.6530448658955 -513.3053424110283 -1256.8821577537244 0 0 0
252 17 12 0 -1266.5410986699696 -508.8587744195243 -1213.1834494748766 0 0 0
250 17 10 1 -1205.5733690547806 -483.8309438110072 -1223.5438321585152 0 0 0
247 17 7 2 -1150.5113601980522 -461.55735204363145 -1240.484734279736 0 0 0
251 17 11 1 -1101.2760643059426 -452.85864356942386 -1259.7941086718179 0 0 0
5532 369 12 0 -2691.7863442372527 -448.7329106371044 -1257.0072151363208 0 0 0
248 17 8 0 -1401.8755051729036 -398.0059296020998 -1239.3256401216927 0 0 0
245 17 5 0 -1352.7775750074422 -425.37350732582405 -1252.7669416016013 0 0 0
1619 108 14 -1.5 -1149.942779865291 -444.44920985120433 -1274.3163342430114 0 0 0
249 17 9 0 -1036.7538378635807 -440.0639603913765 -1266.1239776673278 0 0 0
246 17 6 -0.5 -985.2436768227082 -439.46166262931564 -1250.054353265922 0 0 0
254 17 14 -1.5 -952.2749839020456 -426.43909737061216 -1223.4234871558438 0 0 0
241 17 1 0 -1411.4799035695962 -352.46114428414927 -1243.5547471884838 0 0 0
920 62 5 0 -888.7224076910567 -339.57738159320115 -1258.7122563219627 0 0 0
2927 196 2 0 -2210.676038590084 -203.44708147763527 -1209.6283952930528 0 0 0
5438 363 8 0 -484.973574722156 -219.55551916474923 -1205.513702228974 0 0 0
5431 363 1 0 -416.7075799844278 -209.72730427926496 -1241.7434160163793 0 0 0
2939 196 14 -1.5 -2264.882785166933 -144.53034860972585 -1237.6317309977183 0 0 0
2931 196 6 -0.5 -2305.0714473723956 -138.85084739732412 -1255.3250321125681 0 0 0
657 44 12 0 -112.18306392166622 -86.485423526659 -1211.3763135660136 0 0 0
658 44 13 -0.5 -185.20818279966653 -65.04883843069751 -1248.4119925119762 0 0 0
648 44 3 -1.5 -151.68602070367635 -56.55173841173876 -1223.5860804151218 0 0 0
1715 115 5 0 -584.9854021149399 365.0286776960893 -1233.5466928452925 0 0 0
1423 95 13 -0.5 -1700.3260321615799 432.61886382295984 -1262.1050956731235 0 0 0
1413 95 3 -1.5 -1661.292446196945 451.28037936305054 -1259.9129978446279 0 0 0
1422 95 12 0 -1646.5814160734042 499.6943056605492 -1260.1421692186418 0 0 0
1420 95 10 1 -1667.1961508340416 559.1455167741223 -1266.1788995920997 0 0 0
4663 311 13 -0.5 -1213.7793888043418 772.4523693495674 -1273.6159833992476 0 0 0
4653 311 3 -1.5 -1213.5936970869498 778.5558519727491 -1230.9928551562589 0 0 0
4088 273 8 0 -1014.8050569439289 786.8487359093151 -1254.1932968403858 0 0 0
4474 299 4 0 -1911.4083505518477 955.5386881937887 -1273.366750162737 0 0 0
4472 299 2 0 -1924.684359892756 1021.2120411456893 -1273.1409275090318 0 0 0
4234 283 4 0 -1866.047827764117 1012.919207525642 -1251.0791117746357 0 0 0
4245 283 15 0 -1977.745081991798 1084.714940642814 -1267.6872033907298 0 0 0
4232 283 2 0 -1921.565608519936 1066.561710987141 -1256.8696082077165 0 0 0
4241 283 11 1 -2076.113205743404 1174.9805930095124 -1267.2535525357448 0 0 0
4185 279 15 0 -565.2546703536583 1198.3516399511186 -1226.6770291042963 0 0 0
4240 283 10 1 -2108.384037078174 1265.826812721786 -1201.0975223290175 0 0 0
4237 283 7 2 -2091.993070082272 1216.4469797613938 -1234.4682473787177 0 0 0
4360 291 10 1 -2086.3889462411594 1268.3647459116492 -1254.2458458328956 0 0 0
4172 279 2 0 -497.91994235482184 1244.3386490627522 -1273.9903077763452 0 0 0
4904 327 14 -1.5 -486.4503454413957 1247.1596808107672 -1200.187912884539 0 0 0
5384 359 14 -1.5 -317.96500907123976 1252.770732634174 -1228.1204280072548 0 0 0
5376 359 6 -0.5 -357.5249112534493 1262.4886907444254 -1209.540550370686 0 0 0
4362 291 12 0 -2102.4868916318105 1321.7713713223468 -1225.040551654736 0 0 0
4261 285 1 0 -681.1962496425874 1347.6756765346238 -1237.1587388150883 0 0 0
4184 279 14 -1.5 -553.0233120292843 1280.420732163528 -1211.9429870519784 0 0 0
5381 359 11 1 -472.66794795615135 1284.263893139069 -1204.448692916955 0 0 0
5379 359 9 0 -408.85841258065244 1283.3278901866172 -1214.927498301572 0 0 0
5385 359 15 0 -362.4559636446666 1325.0409617138212 -1218.095989947416 0 0 0
4266 285 6 -0.5 -326.1202256278856 1297.1699752228576 -1204.95001117782 0 0 0
4274 285 14 -1.5 -287.4014819125927 1277.4023449598026 -1211.9616817294636 0 0 0
4353 291 3 -1.5 -2094.577082910908 1367.265793078365 -1210.4807247623091 0 0 0
4363 291 13 -0.5 -2069.248217763328 1397.9518283534503 -1225.7754981906355 0 0 0
2409 161 9 0 -2290.4559055805234 1495.792634749708 -1262.318763771772 0 -1 0
2414 161 14 -1.5 -2321.4664299378733 -1470.1761414336515 -1173.6951413330019 0 0 0
3624 242 9 0 -195.31290771216294 -1440.6778184142233 -1186.9034216503771 0 0 0
3617 242 2 0 -59.68687066042789 -1475.4015611919147 -1187.7170018998042 0 0 0
3619 242 4 0 -3.153582262636331 -1488.5963450135014 -1176.935930627481 0 0 0
3626 242 11 1 -224.6897584280067 -1398.521051719196 -1147.4112194938364 0 0 0
2404 161 4 0 -2242.9595062392705 -1336.1906232598894 -1169.1819713375523 0 0 0
2563 171 13 -0.5 -1225.59962027068 -1149.4987330205404 -1188.7264008703607 0 0 1
2656 178 1 0 -344.67924872950823 -753.9543745465844 -1140.5340138187144 0 0 0
1608 108 3 -1.5 -1444.0939120469766 -674.5057609162957 -1181.6585710015627 0 0 0
1617 108 12 0 -1412.4610844334802 -633.5722195186789 -1179.9109231625068 0 0 0
5521 369 1 0 -2777.771052020791 -544.2960295310143 -1180.7735781205702 0 0 0
1610 108 5 0 -1468.2930156155687 -573.1245252906845 -1140.1494233973317 0 0 0
928 62 13 -0.5 -947.1314071019132 -477.2510572483854 -1164.80918546572 0 0 0
242 17 2 0 -900.279259653235 -465.15883004533384 -1159.363745117079 0 0 0
244 17 4 0 -843.7346141758082 -477.2873657453389 -1157.907939431096 0 0 0
919 62 4 0 -542.8372132625947 -468.79423623719816 -1196.4723219271204 0 0 0
5530 369 10 1 -2695.6851149396343 -433.2400222375122 -1195.4569388822435 0 0 0
5527 369 7 2 -2689.0603646823693 -420.2908424058124 -1135.2490119495353 0 0 0
255 17 15 0 -988.9991033505057 -442.13462244739173 -1197.212303585969 0 0 0
918 62 3 -1.5 -939.8503473456637 -434.49108092659833 -1165.551665932906 0 0 0
927 62 12 0 -893.1627759479734 -411.0452578144529 -1160.3026275723375 0 0 0
925 62 10 1 -835.623664782767 -417.2062149070611 -1132.3549982044783 0 0 0
917 62 2 0 -559.139949263742 -433.08640009920686 -1140.254411486913 0 0 0
5059 338 4 0 -717.9150020230818 -241.67212857370782 -1164.1190837541046 0 0 0
5435 363 5 0 -519.8817222037318 -249.93005405189567 -1141.2067666050452 0 0 0
2929 196 4 0 -2186.768414052159 -212.5522192023759 -1163.4964960120174 0 0 0
5057 338 2 0 -757.8835440896746 -213.88486915437772 -1126.100453334638 0 0 0
3121 209 1 0 -1444.07371796348 -124.74080670911648 -1168.540100718553 0 0 0
3128 209 8 0 -1402.1149663260999 -100.23439845372806 -1152.3783791770948 0 0 0
655 44 10 1 -67.51182252000977 -117.46503079460376 -1173.9377332542372 0 0 0
652 44 7 2 -30.195014395959653 -140.50133271264144 -1130.6164683157258 0 0 0
1711 115 1 0 -649.4290796363596 323.499021091549 -1154.4754969347048 0 0 0
1718 115 8 0 -615.0166295331222 355.0245577260068 -1171.326209298615 0 0 0
1294 87 4 0 -774.3741910865293 386.5869449881879 -1167.3836705857973 0 0 0
3029 202 14 -1.5 -428.03068877100117 475.0054155596315 -1153.528281376206 0 0 0
5168 345 8 0 -1942.8020243944366 666.7381159344525 -1128.0371762346674 0 0 0
5163 345 3 -1.5 -2113.9830113121075 688.5546367553194 -1127.1130907955337 0 0 0
5165 345 5 0 -2018.8146227996547 685.3885226240279 -1134.470373863231 0 0 0
5161 345 1 0 -1884.4554419098995 707.4309707947618 -1143.1334333821478 0 0 0
4655 311 5 0 -1299.2263215237201 798.8177550728873 -1138.151620889414 0 0 0
4662 311 12 0 -1206.96302645602 816.3910469180854 -1197.546975690457 0 0 0
4660 311 10 1 -1170.5985204939582 857.6924135055934 -1162.7702131396743 0 0 0
4657 311 7 2 -1130.502855224763 892.6354679931303 -1132.2116328879333 0 0 0
4085 273 5 0 -1014.308746891935 832.3352155959458 -1192.6049002214304 0 0 0
4093 273 13 -0.5 -1133.0403585111562 928.0891041805129 -1152.8994177608383 0 0 0
4083 273 3 -1.5 -1101.485550034565 908.7282657931478 -1131.1499535727485 0 0 0
4092 273 12 0 -1049.9972675956187 915.7524715584217 -1129.5334216578785 0 0 0
4654 311 4 0 -904.8965216198569 1091.1145833522105 -1138.3903438218497 0 0 0
4182 279 12 0 -825.0570282787725 1124.707158923552 -1128.184477759196 0 0 0
4180 279 10 1 -761.7005103040706 1139.0064743088428 -1136.7028515751622 0 0 0
4177 279 7 2 -704.0075258650004 1150.097711877459 -1154.740251580428 0 0 0
5383 359 13 -0.5 -697.3568191490153 1183.6089226353845 -1137.5136663032386 0 0 0
4273 285 13 -0.5 -673.2554488758218 1195.578790963935 -1143.3591495552357 0 0 0
4897 327 7 2 -668.651748595077 1158.2553394715785 -1131.5220599202787 0 0 0
4181 279 11 1 -656.0690316526081 1168.7372457419374 -1170.9010835820125 0 0 0
4901 327 11 1 -624.39013305869 1187.9928778330466 -1141.671763649064 0 0 0
5639 376 14 -1.5 -653.0846577494234 1196.102356779383 -1135.0185868238568 0 0 0
4263 285 3 -1.5 -630.9490604973507 1199.9943761126779 -1140.3875974328546 0 0 0
4171 279 1 0 -977.3670309618429 1263.785845609986 -1125.2312025139 0 0 0
4175 279 5 0 -871.291892848656 1205.690632580272 -1125.9180097647084 0 0 0
5373 359 3 -1.5 -677.3630857402369 1205.7001400579313 -1167.9338549218141 0 0 0
4179 279 9 0 -603.251318560579 1204.428203974153 -1180.8706725637899 0 0 0
5382 359 12 0 -639.6737246371368 1235.8458630995165 -1165.6138305228956 0 0 0
4272 285 12 0 -602.8414299561954 1238.7321985368885 -1126.3964055781544 0 0 0
4899 327 9 0 -563.7303883093795 1218.1004120781133 -1148.0572044213172 0 0 0
4176 279 6 -0.5 -567.9323516865469 1246.3625742506556 -1187.8065893334947 0 0 0
5380 359 10 1 -579.3784061135045 1253.4940401412073 -1175.7836233207684 0 0 0
4270 285 10 1 -543.3565627918161 1259.7378582774772 -1134.6460068716153 0 0 0
5377 359 7 2 -521.9647359910297 1267.3865093933653 -1191.2112834179295 0 0 0
4896 327 6 -0.5 -517.29629790043 1240.1484901023575 -1168.9936036006634 0 0 0
4267 285 7 2 -488.16535977266346 1274.6017548179946 -1158.2024738688142 0 0 0
4275 285 15 0 -334.8249144354131 1256.685424292241 -1165.0985505022288 0 0 0
4238 283 8 0 -2259.1785070118904 1326.3143500493552 -1141.281796526344 0 0 0
4358 291 8 0 -2234.944304515942 1313.0912957120993 -1190.6837854236567 0 0 0
4235 283 5 0 -2191.0866203522232 1316.9397735365762 -1141.05721662486 0 0 0
4355 291 5 0 -2172.68787831849 1312.2551831674302 -1196.637043504034 0 0 0
4242 283 12 0 -2121.791755545956 1322.8206521913373 -1172.805603328549 0 0 0
4265 285 5 0 -654.9830605577099 1305.1938513477787 -1141.2006765909919 0 0 0
4905 327 15 0 -546.968502839896 1295.969490101612 -1165.041313302636 0 0 0
4271 285 11 1 -440.79561394133145 1293.0434413869305 -1173.9717789919782 0 0 0
4269 285 9 0 -375.092535658719 1299.0600339653395 -1182.6020274684065 0 0 0
5372 359 2 0 -298.63568080390945 1339.6246511924994 -1190.9950117979429 0 0 0
5374 359 4 0 -261.3364869596491 1319.58730860456 -1162.5460053197564 0 0 0
4351 291 1 0 -2263.211389634985 1357.0437048862866 -1197.1871522151637 0 0 0
4233 283 3 -1.5 -2115.1299006489544 1373.973801517936 -1171.7434773623672 0 0 0
4243 283 13 -0.5 -2081.1937152039277 1399.4840765361066 -1180.5963343094397 0 0 0
4268 285 8 0 -671.841883476075 1366.2716965022435 -1182.273455150027 0 0 0
4892 327 2 0 -498.50283304516654 1357.0081164991989 -1153.1467825490624 0 0 0
4894 327 4 0 -476.25253338401535 1404.9680174896987 -1177.1270908260894 0 0 0
3622 242 7 2 -247.88858754579167 -1358.8618009513216 -1118.5718923438126 0 0 0
3616 242 1 0 -542.8654972046326 -1288.4489202545922 -1095.4866614871603 0 0 0
3856 258 1 0 -344.5135961016224 -1280.9085214072352 -1070.2164361491693 0 0 0
3625 242 10 1 -270.62528459409776 -1306.5147499409504 -1094.4296781226344 0 0 0
3623 242 8 0 -483.4917175570486 -1259.206178130805 -1062.4870298430044 0 0 0
3620 242 5 0 -395.36837364768246 -1264.16563084004 -1076.417501848245 0 0 0
3627 242 12 0 -299.4270474093761 -1248.5698370699877 -1075.4083824049944 0 0 0
3628 242 13 -0.5 -315.4853145027764 -1170.8569455363038 -1105.8891093241605 0 0 0
3618 242 3 -1.5 -298.93980846012727 -1198.7904917727856 -1079.2567772028865 0 0 0
3751 251 1 0 -569.1766086758681 -962.1956895449927 -1070.9866567237812 0 0 0
1318 88 13 -0.5 -176.096198430654 -909.4521405236721 -1091.0920805051926 0 0 0
1308 88 3 -1.5 -144.41638789402012 -923.4139296532607 -1065.444128581135 0 0 0
2665 178 10 1 -106.450524871622 -860.8097558176775 -1070.8280050299275 0 0 0
2662 178 7 2 -49.436495713124835 -850.7621915915865 -1091.9466500459125 0 0 0
2663 178 8 0 -304.48733598385655 -789.8548232821835 -1120.4936495239763 0 0 0
2660 178 5 0 -239.37776839426047 -813.3268468992667 -1074.2751912185818 0 0 0
1613 108 8 0 -1516.096994614816 -529.6831263435193 -1093.987576784472 0 0 0
1606 108 1 0 -1541.5003522510162 -483.1994201397479 -1082.5072843061703 0 0 0
5531 369 11 1 -2679.31551593336 -408.23508389898984 -1083.2738542917775 0 0 0
922 62 7 2 -783.052626314699 -411.6724103824544 -1100.8712055566077 0 0 0
3388 226 13 -0.5 -747.7456192019022 -427.25985096206676 -1088.4648519689235 0 0 0
3378 226 3 -1.5 -735.0324217305531 -389.34984445931366 -1103.0644721051774 0 0 0
926 62 11 1 -737.5380223707323 -401.31668864997135 -1071.508003798706 0 0 0
930 62 15 0 -616.274572059648 -396.3143847879057 -1085.197153230184 0 0 0
3387 226 12 0 -714.8241288912905 -353.47062707331787 -1080.7033931244107 0 0 0
929 62 14 -1.5 -607.8486304181475 -316.80655249121645 -1063.1582627652956 0 0 0
921 62 6 -0.5 -632.2347911878369 -352.3611663417205 -1051.5308827321642 0 0 0
3383 226 8 0 -848.1312396688792 -239.88977078303077 -1064.8566051813284 0 0 0
3380 226 5 0 -816.6014460285016 -285.7686795253641 -1054.3734967764324 0 0 0
5433 363 3 -1.5 -613.8661218628231 -259.3533199378936 -1061.745214738331 0 0 0
5442 363 12 0 -567.1976902535994 -247.9548357214317 -1052.0802179897207 0 0 0
3122 209 2 0 -914.6448762493496 -161.92149387974396 -1055.3968924012033 0 0 0
3376 226 1 0 -834.5102680599541 -170.00260658160659 -1056.545273651364 0 0 0
3124 209 4 0 -861.1610886023444 -191.47781681293517 -1075.763303963347 0 0 0
5070 338 15 0 -807.0037096658943 -192.2704456017502 -1080.0678722853688 0 0 0
3125 209 5 0 -1371.1970863144627 -126.31590394241798 -1108.5407126668533 0 0 0
1298 87 8 0 -1077.62162675432 274.2281321590302 -1061.9490554976428 0 0 0
1291 87 1 0 -1064.5969183067793 319.33888412098736 -1115.6666856617965 0 0 0
3016 202 1 0 -865.840190054201 359.2494628718176 -1069.2214112388317 0 0 0
3023 202 8 0 -832.2025313252706 362.52674284410494 -1067.8414523910312 0 0 0
3019 202 4 0 -289.2212653003032 342.6595441311961 -1104.7044005758196 0 0 0
993 67 3 -1.5 -1038.393577264267 427.08540614473 -1054.485547004611 0 0 0
1292 87 2 0 -793.380654446857 383.9524229440619 -1118.000896550551 0 0 0
3026 202 11 1 -539.2917040284394 430.9588509359256 -1055.6681938083623 0 0 0
2399 160 14 -1.5 -560.0349572255553 433.6991439810401 -1059.2185846260998 0 0 0
2391 160 6 -0.5 -586.1636943929697 397.6253237715368 -1062.1717133337215 0 0 0
3024 202 9 0 -485.7709701712443 433.3650894978662 -1092.1112057631485 0 0 0
3030 202 15 0 -432.51517970090794 407.0865103350528 -1086.029123754229 0 0 0
3017 202 2 0 -329.46953609476543 382.33779921711084 -1092.8200834098795 0 0 0
3021 202 6 -0.5 -444.9430576651729 457.56041139551644 -1116.3367418008836 0 0 0
5173 345 13 -0.5 -2146.169231172795 660.4322654393072 -1119.588858217689 0 0 0
3523 235 13 -0.5 -1423.9418640267738 644.7665625861335 -1112.43615505151 0 0 0
3513 235 3 -1.5 -1398.111798174283 655.3298685675774 -1080.222512594511 0 0 0
5172 345 12 0 -2084.6251809430505 712.6401131848868 -1099.5520432646942 0 0 0