LAMMPS data file via write_data, version 27 Jun 2024, timestep = 23680000, units = real

5730 atoms
15 atom types
5622 bonds
16 bond types
5730 angles
15 angle types

-3000 3000 xlo xhi
-1500 1500 ylo yhi
-1500 1500 zlo zhi

Masses

1 241.19
2 73.54000000000001
3 330.71
4 235.16
5 68.06999999999999
6 353.53
7 223.38
8 41.1
9 216.91
10 155.15
11 147.32
12 264.65
13 300.8
14 326.05
15 85.20999999999999

Pair Coeffs # lj/cut/coul/debye/gpu

1 0.71637 40.7505
2 0.665709 48.1397
3 1.15033 39.2216
4 0.726774 43.8077
5 0.514724 53.3428
6 1.17127 41.7847
7 1.2256 38.5601
8 0.675431 54.5696
9 1.26117 43.78
10 0.939007 42.5209
11 0.960667 41.1825
12 1.30988 48.0761
13 1.36645 37.7114
14 1.35529 39.2179
15 0.592003 47.2602

Bond Coeffs # harmonic

1 0.003 59.228
2 0.008 56.48
3 0.001 69.324
4 3.207 42.88
5 0.11 49.807
6 0.002 74.968
7 0.001 91.635
8 0.145 54.383
9 2.709 44.406
10 1.71 61.679
11 1.625 54.051
12 0.207 66.185
13 0.002 64.76
14 0.079 63.886
15 0.2 40
16 0.2 40

Angle Coeffs # harmonic

1 11.427 158.273
2 50.464 132.042
3 8.207 156.514
4 92.705 149.394
5 100 174.44
6 3.15 145.53
7 48.938 159.031
8 17.401 129.945
9 15.735 56.441
10 60 172.254
11 60.285 168.396
12 11.83 99.091
13 150 107.995
14 27.746 149.925
15 7.483 160.775

Atoms # full

2412 161 12 0 -2369.6274450397113 -1441.1394895058409 -1464.276741634206 0 0 0
2552 171 2 0 -878.8711235787746 -1351.8323357697682 -1499.307025843566 0 0 1
2559 171 9 0 -1020.9618356973666 -1288.4527162186068 -1492.3586205261713 0 0 1
2565 171 15 0 -962.2295424685659 -1308.375109130869 -1483.523836464869 0 0 1
2561 171 11 1 -1059.6618278297476 -1260.6903775759745 -1446.8329444112096 0 0 1
1082 73 2 0 -2421.7289571180654 -1038.876375518952 -1462.9241281238224 0 0 1
1084 73 4 0 -2378.474903507379 -1036.9621003846255 -1439.2156837481884 0 0 1
1804 121 4 0 -2647.899926990958 -707.2681882359882 -1453.4671129138217 0 0 0
1802 121 2 0 -2652.653066034598 -654.6926612930918 -1460.135808856878 0 0 0
1815 121 15 0 -2673.310070112434 -598.5617145297241 -1426.0427897012694 0 0 0
973 65 13 -0.5 -2632.977856687945 -469.2902748563679 -1478.5337963177583 0 0 0
5702 381 2 0 -318.02272220786574 -509.7742333856952 -1459.0173435855982 0 0 1
963 65 3 -1.5 -2621.844358242763 -428.60493412069565 -1485.006854319358 0 0 0
972 65 12 0 -2616.894774093617 -391.04988620860354 -1454.1750981683433 0 0 0
2926 196 1 0 -2373.5521328121863 -404.4703288718568 -1445.8998646870039 0 0 0
2594 173 14 -1.5 -1670.7826898146182 -289.17761535159605 -1498.7069662321644 0 0 1
2595 173 15 0 -1585.11572031858 -289.81209618978363 -1494.5361277430552 0 0 1
1055 71 5 0 -745.4769313656424 311.3084255146902 -1482.4788893959335 0 0 0
1712 115 2 0 -284.50399913218985 521.7903544004091 -1455.6894038655917 0 0 0
5288 353 8 0 -2650.2770433301494 586.5456257181204 -1465.4087002226122 0 0 1
4927 329 7 2 -1807.6413128607228 541.1059568987861 -1430.662231775737 0 0 0
4930 329 10 1 -1789.1289193579996 547.0905046986012 -1489.273643547878 0 0 0
1414 95 4 0 -1792.3217755651403 895.7288740335956 -1447.0886148578224 0 0 0
4480 299 10 1 -2111.5670074351874 1059.578545563913 -1478.8815056712908 0 0 0
4365 291 15 0 -2101.9162578178725 1107.248460504049 -1461.1094496250748 0 0 0
4477 299 7 2 -2076.667976714564 1081.585964198253 -1432.8587112407097 0 0 0
2410 161 10 1 -2362.776629596575 -1451.3519159955379 -1402.8409260931812 0 0 0
3769 252 4 0 -1460.773382108769 -1371.2832594185763 -1372.2871436370094 0 0 0
3767 252 2 0 -1500.1076575401357 -1320.7491400758915 -1368.7704641294297 0 0 0
2551 171 1 0 -1367.7726862583997 -1277.9729488558469 -1378.0596525102433 0 0 1
2558 171 8 0 -1301.4279977037068 -1288.4150766001385 -1381.8327839681563 0 0 1
3780 252 15 0 -1531.8941346566348 -1241.5089074513007 -1361.9535900916994 0 0 0
3779 252 14 -1.5 -1485.2212720004234 -1204.517208834046 -1396.48512599308 0 0 0
2555 171 5 0 -1252.1388340101996 -1253.7803317235437 -1383.8699905286237 0 0 1
2560 171 10 1 -1141.8866282233669 -1225.1298695281148 -1373.6214164430744 0 0 1
2557 171 7 2 -1095.091576852801 -1244.513933736458 -1410.0708693363226 0 0 1
3770 252 5 0 -1873.5118679713737 -1188.6745812581087 -1417.9108551156326 0 0 0
3772 252 7 2 -1693.8905180628813 -1193.6927636724067 -1354.8557837646326 0 0 0
3776 252 11 1 -1640.3940338027087 -1197.5725800065866 -1362.7731942906491 0 0 0
3774 252 9 0 -1573.1615592883545 -1198.124283020298 -1361.559659381356 0 0 0
3771 252 6 -0.5 -1525.389076673448 -1190.899336609415 -1383.6295182790382 0 0 0
5521 369 1 0 -2897.3395665609755 -614.722273418718 -1410.0733250429837 0 0 0
1814 121 14 -1.5 -2679.7671764283377 -649.7596222761113 -1351.6371656325434 0 0 0
5528 369 8 0 -2884.9106666204484 -575.6598786726978 -1363.194487530604 0 0 0
1809 121 9 0 -2678.5815294722934 -553.0322688179734 -1352.612817312684 0 0 0
5704 381 4 0 -325.7265809907315 -552.37439429385 -1412.0253283717345 0 0 1
961 65 1 0 -2814.621886128893 -458.0524495370254 -1418.100335991011 0 0 0
5533 369 13 -0.5 -2726.010911857886 -504.2725240175014 -1401.2607506553475 0 0 0
5523 369 3 -1.5 -2714.0249216891884 -509.6491578235943 -1360.2952701288089 0 0 0
968 65 8 0 -2781.4441229262857 -390.44829685247385 -1423.2610117287309 0 0 0
1807 121 7 2 -2641.3992297312734 -439.39194666902193 -1351.2151640528878 0 0 0
1810 121 10 1 -2623.7984738686814 -381.40042263186444 -1361.6227857777435 0 0 0
2933 196 8 0 -2436.259574019922 -395.5441756057332 -1418.2759911515545 0 0 0
241 17 1 0 -1387.650140262824 -398.1310690692854 -1382.1254959152993 0 0 0
965 65 5 0 -2720.1533683099433 -374.47303444986113 -1421.9177331292528 0 0 0
970 65 10 1 -2578.68953043312 -352.4105024539151 -1421.5970723035061 0 0 0
1812 121 12 0 -2605.828107379514 -324.05805968113225 -1386.8166906749198 0 0 0
2930 196 5 0 -2486.734590569238 -328.5229873923734 -1422.4745114877308 0 0 0
967 65 7 2 -2535.296966348399 -317.22322647001874 -1396.3833833050478 0 0 0
2582 173 2 0 -1589.738589562157 -323.97264826373566 -1418.279408193856 0 0 1
2584 173 4 0 -1574.7271848832818 -355.0141443263666 -1387.3956787861355 0 0 1
1805 121 5 0 -2659.7617706928054 -279.9510770892772 -1384.6481303224107 0 0 0
2938 196 13 -0.5 -2563.6867467034826 -292.96240010750506 -1386.4298628731303 0 0 0
1803 121 3 -1.5 -2563.144978328192 -294.17623217059185 -1394.2416799505404 0 0 0
2928 196 3 -1.5 -2547.0846360797004 -254.23692926339854 -1379.7213940207776 0 0 0
971 65 11 1 -2496.345323468637 -283.9537439469642 -1380.4653092330457 0 0 0
1813 121 13 -0.5 -2526.842951854426 -282.5973264065942 -1374.3784980112325 0 0 0
2937 196 12 0 -2503.1012817926044 -240.29867180279584 -1392.5185205641683 0 0 0
1801 121 1 0 -2768.785629253106 -196.85994293397837 -1415.4579124524726 0 0 0
1808 121 8 0 -2716.384937668412 -218.6125948632889 -1404.4656140381778 0 0 0
2935 196 10 1 -2447.2292465541846 -216.19494721926313 -1373.148252518701 0 0 0
1063 71 13 -0.5 -766.3722044226208 235.571234462355 -1414.287159097084 0 0 0
1062 71 12 0 -707.3657919851416 291.9059377343192 -1407.3140161286349 0 0 0
1053 71 3 -1.5 -724.8051716104468 246.53412955555993 -1413.1488687519732 0 0 0
1060 71 10 1 -658.270489410588 327.26747160998724 -1396.160104673937 0 0 0
1057 71 7 2 -604.9207937482067 357.55365399637856 -1389.5790853289352 0 0 0
1723 115 13 -0.5 -578.257181270348 358.73416931761335 -1360.6722106254324 0 0 0
1061 71 11 1 -559.0959437944686 380.8530548876134 -1374.8408568561906 0 0 0
1054 71 4 0 -357.6226907853387 509.79071666235654 -1389.9653089208773 0 0 0
5281 353 1 0 -2623.5210300322756 566.205804665449 -1408.964071874694 0 0 1
4931 329 11 1 -1827.4120790847292 538.8862909885531 -1380.522287662024 0 0 0
1719 115 9 0 -380.2187091080554 569.4346034947187 -1351.8509213711502 0 0 0
1725 115 15 0 -347.64586682432696 566.7613095314026 -1393.872038276651 0 0 0
1724 115 14 -1.5 -330.3790040465289 648.4089983396385 -1373.2677759812589 0 0 0
1716 115 6 -0.5 -341.6130851977656 607.6350762438573 -1359.7960208791249 0 0 0
1416 95 6 -0.5 -1833.3248123345602 742.9235309126011 -1388.8995939382783 0 0 0
1419 95 9 0 -1804.744061025718 703.7757272604615 -1357.7221487709653 0 0 0
1424 95 14 -1.5 -1862.692654598631 776.2551417053504 -1393.0679874339378 0 0 0
1425 95 15 0 -1794.7302451718313 770.0339432200326 -1391.8204959118873 0 0 0
1412 95 2 0 -1809.2983512518526 853.2115130877361 -1420.4974102776316 0 0 0
4364 291 14 -1.5 -2067.63875717827 1040.8380759768352 -1422.581830899126 0 0 0
4472 299 2 0 -1921.3211053019124 1019.6014304287606 -1385.3855259654674 0 0 0
4474 299 4 0 -1872.0683704703756 998.1346208147964 -1384.7247106414416 0 0 0
4356 291 6 -0.5 -2063.3668144097005 1074.97135740773 -1393.8272098456957 0 0 0
4481 299 11 1 -2043.9550909208851 1094.3125268341573 -1392.9953941633275 0 0 0
4244 283 14 -1.5 -2031.985258308076 1061.5678647871443 -1365.5229937260115 0 0 0
4232 283 2 0 -1961.391617329342 1115.55913142204 -1393.2011909813425 0 0 0
4485 299 15 0 -1953.9137611350184 1059.646180110564 -1358.810162359304 0 0 0
4234 283 4 0 -1902.2535655480576 1116.2464416599432 -1414.0324148106067 0 0 0
4359 291 9 0 -2070.5542501882164 1127.8622043773812 -1376.3244203660497 0 0 0
4245 283 15 0 -2014.3663899923072 1131.4952916877046 -1370.11614267651 0 0 0
2407 161 7 2 -2351.5419704560068 -1469.332178116008 -1344.8414328569281 0 0 0
2411 161 11 1 -2333.541404168069 -1487.1319521663027 -1297.0323585958583 0 0 0
3778 252 13 -0.5 -1879.858900952446 -1249.7621202078562 -1291.6702155401063 0 0 0
3768 252 3 -1.5 -1845.220806395647 -1224.3948419824164 -1291.3624754267273 0 0 0
3777 252 12 0 -1811.8837975954325 -1216.049936254336 -1328.020628234007 0 0 0
2562 171 12 0 -1194.178528853867 -1209.2915501129216 -1346.2635001248539 0 0 1
3775 252 10 1 -1753.4936623842923 -1199.4125364256793 -1341.1497664891253 0 0 0
2553 171 3 -1.5 -1206.586693074489 -1195.7315235054475 -1299.5486012341373 0 0 1
2563 171 13 -0.5 -1187.359330834113 -1165.3227462483542 -1276.32459270597 0 0 1
2659 178 4 0 -51.98453078675903 -747.6272685853241 -1343.5853144619125 0 0 0
2657 178 2 0 -7.336535182015514 -733.4210974082248 -1308.7972635100045 0 0 0
1806 121 6 -0.5 -2674.6012325207043 -607.1158925321274 -1340.6844481475398 0 0 0
5525 369 5 0 -2814.758458559794 -521.4296431192297 -1328.1601652032498 0 0 0
5532 369 12 0 -2731.4679386384455 -482.070604990622 -1321.0212606733003 0 0 0
1811 121 11 1 -2662.9829253046255 -488.8866031539564 -1349.8851590473168 0 0 0
1607 108 2 0 -1046.6950362733394 -499.38998182643707 -1290.457826799542 0 0 0
1609 108 4 0 -997.688536841387 -475.20930634148084 -1284.1308311236976 0 0 0
964 65 4 0 -2316.263241713818 -397.4787966011958 -1326.2768876333423 0 0 0
248 17 8 0 -1334.5615965905267 -411.06467358301916 -1340.5477317227703 0 0 0
245 17 5 0 -1288.7798689895694 -437.2695758258577 -1281.759495723554 0 0 0
962 65 2 0 -2344.798242350746 -354.89293931327677 -1342.025174724496 0 0 0
2929 196 4 0 -2083.740514134552 -333.64781628808197 -1282.852983805372 0 0 0
969 65 9 0 -2446.4948554228854 -256.21392494253695 -1349.6442134742906 0 0 0
966 65 6 -0.5 -2400.6573888172443 -234.01880223720818 -1339.54659117541 0 0 0
975 65 15 0 -2393.7891822881743 -284.90737644709765 -1333.85273949236 0 0 0
2940 196 15 0 -2216.2992383529427 -251.54468674479705 -1328.4350659925792 0 0 0
2927 196 2 0 -2135.1788522480665 -294.16462939962804 -1288.1306270367797 0 0 0
916 62 1 0 -978.6628723183516 -294.13171468238494 -1317.0605972544936 0 0 0
2932 196 7 2 -2390.540175845416 -206.2037560195411 -1349.470478323323 0 0 0
974 65 14 -1.5 -2369.133711630817 -213.85917641664884 -1314.9320364297178 0 0 0
2936 196 11 1 -2340.959372891338 -202.4961166064047 -1329.7080310350616 0 0 0
2934 196 9 0 -2277.4562696503667 -211.28821797747267 -1311.72163133944 0 0 0
2931 196 6 -0.5 -2230.140031489252 -194.40931032982317 -1295.854135863861 0 0 0
2939 196 14 -1.5 -2203.1065997372175 -159.51711277384064 -1292.802819591111 0 0 0
3121 209 1 0 -1366.7323704946655 -158.4691112833571 -1310.9198907292198 0 0 0
650 44 5 0 -76.77915626668164 -120.10530449573268 -1298.266484814592 0 0 0
653 44 8 0 -5.822739634333675 -125.32794904508397 -1333.9856497778942 0 0 0
1713 115 3 -1.5 -553.0156417730633 354.8888252417073 -1326.0247190836167 0 0 0
1722 115 12 0 -522.50756999071 383.7504647400575 -1296.2663226598816 0 0 0
1059 71 9 0 -507.82554143616926 405.6843906912813 -1338.4375854788502 0 0 0
1720 115 10 1 -482.60606701128836 433.96016332950666 -1294.513226788385 0 0 0
1056 71 6 -0.5 -481.1015184198938 424.4725785204844 -1296.96335243618 0 0 0
1418 95 8 0 -1522.7731069768831 507.19602249842035 -1281.2778507528294 0 0 0
1065 71 15 0 -466.58053362498197 458.5433839603529 -1335.0903473583753 0 0 0
1052 71 2 0 -394.2154335651642 490.4509848903133 -1348.781099443462 0 0 0
1064 71 14 -1.5 -448.7728292594105 450.0412533155236 -1281.1978069761533 0 0 0
1717 115 7 2 -447.0189212558488 484.7646637286251 -1304.7281285153458 0 0 0
4935 329 15 0 -1905.4866324591871 553.45670384591 -1280.716477899695 0 0 0
4929 329 9 0 -1841.90725793311 533.8956209564968 -1315.0975774759468 0 0 0
1721 115 11 1 -415.48919354496616 525.3357402799326 -1319.1103811626429 0 0 0
1417 95 7 2 -1717.16601423674 653.3598302070524 -1294.1890878939153 0 0 0
1421 95 11 1 -1755.468140398247 677.6011530617338 -1322.0583993760802 0 0 0
4236 283 6 -0.5 -2061.715808976706 1091.1165569493548 -1349.1990610969715 0 0 0
4479 299 9 0 -1996.4602572672256 1094.8453160188171 -1347.3959926544808 0 0 0
4476 299 6 -0.5 -1954.72526521017 1076.7067094417741 -1316.6547655269226 0 0 0
4484 299 14 -1.5 -1940.1314390545838 1057.012117211691 -1279.6469881860414 0 0 0
4361 291 11 1 -2096.1143724031003 1176.421068407289 -1341.9577400212252 0 0 0
4239 283 9 0 -2071.10052149805 1141.1114699803566 -1328.5138484784407 0 0 0
4241 283 11 1 -2071.394733557029 1189.8238108535447 -1286.835210380732 0 0 0
4357 291 7 2 -2105.5985939447123 1211.4269034071992 -1302.4916359914268 0 0 0
5374 359 4 0 -335.44479442105677 1337.3615168043996 -1280.349241544812 0 0 0
2415 161 15 0 -2279.4688014670805 -1493.6117803598702 -1209.3343347018438 0 0 0
3629 242 14 -1.5 -160.7952553850775 -1488.6467786400788 -1254.9449240359033 0 0 0
3621 242 6 -0.5 -177.42769168281413 -1461.8955689687546 -1223.8583304608728 0 0 0
3617 242 2 0 -62.35131550129098 -1436.6750017757322 -1202.4945608882356 0 0 0
3619 242 4 0 -10.455683396475099 -1439.7839302352759 -1203.4455466010622 0 0 0
3624 242 9 0 -202.95034176702697 -1416.6697542872303 -1211.682681808773 0 0 0
1612 108 7 2 -1288.3953640239517 -593.9773409753009 -1218.832076577134 0 0 0
253 17 13 -0.5 -1270.395794389226 -559.2785820823906 -1206.5957325289737 0 0 0
243 17 3 -1.5 -1242.2374225501467 -539.9332892477075 -1233.1046311614273 0 0 0
1616 108 11 1 -1247.1822496520995 -572.9351406723067 -1245.5754659312952 0 0 0
1614 108 9 0 -1197.0903791102987 -530.840854060768 -1266.1503231739398 0 0 0
1620 108 15 0 -1109.956003466949 -535.3511242583885 -1274.5641736080872 0 0 0
5530 369 10 1 -2723.528996287103 -457.4315264468735 -1256.95307669136 0 0 0
1606 108 1 0 -1561.1626287690308 -460.5998120130219 -1207.9851623691502 0 0 0
252 17 12 0 -1215.7587492074422 -496.48610824281303 -1226.8112928395574 0 0 0
1611 108 6 -0.5 -1161.3415419858625 -489.3018873390053 -1267.992405395466 0 0 0
250 17 10 1 -1161.1090973697658 -471.75883577151063 -1239.7161183461792 0 0 0
1619 108 14 -1.5 -1119.9426793997068 -473.68135928375966 -1269.6651474716293 0 0 0
5527 369 7 2 -2725.0879223886714 -424.0119538183296 -1204.676239393775 0 0 0
247 17 7 2 -1106.2027937858438 -444.2046478587499 -1243.2336155079552 0 0 0
251 17 11 1 -1059.395623066139 -417.7849002256425 -1250.0570981627984 0 0 0
249 17 9 0 -996.2034679074574 -396.79069994931115 -1243.9874934151446 0 0 0
246 17 6 -0.5 -943.0243609262452 -395.6485635520788 -1237.9939245639869 0 0 0
923 62 8 0 -1002.3238876736237 -302.39463684564396 -1231.2995534278862 0 0 0
254 17 14 -1.5 -904.5662482207126 -372.60888972104976 -1244.582671856281 0 0 0
3128 209 8 0 -1381.4425505339862 -183.32908037830916 -1260.2643447188973 0 0 0
5059 338 4 0 -742.6448914006753 -161.61033141181713 -1228.6472887605266 0 0 0
648 44 3 -1.5 -159.14034892909316 -105.42585465672343 -1253.6758347834138 0 0 0
658 44 13 -0.5 -200.38485941316503 -103.60868672126857 -1242.7134844625746 0 0 0
657 44 12 0 -121.39814340884695 -138.13672597582237 -1242.273246096326 0 0 0
4934 329 14 -1.5 -1825.2088604050905 508.40471402367154 -1224.8787389841807 0 0 0
1423 95 13 -0.5 -1682.8018182692763 494.90522768388814 -1202.1697418392102 0 0 0
1411 95 1 0 -1484.532002270432 466.79148599901526 -1265.3852870826117 0 0 0
4924 329 4 0 -1985.2079309271228 545.0059498074442 -1217.5504661209816 0 0 0
4922 329 2 0 -1943.1144743964146 561.0150824551894 -1247.649175102815 0 0 0
4926 329 6 -0.5 -1830.1960923384574 532.5446801064328 -1262.1557676052453 0 0 0
1422 95 12 0 -1658.1582822971552 574.5192130827331 -1222.033066991669 0 0 0
1415 95 5 0 -1587.7231816081116 548.3553263197502 -1249.685394081737 0 0 0
1420 95 10 1 -1680.1045540337484 620.6112448554453 -1257.7410214569766 0 0 0
4663 311 13 -0.5 -1231.8878437361068 776.1052599723737 -1259.5438209461158 0 0 0
4653 311 3 -1.5 -1211.0151269221053 806.3529907447873 -1236.2123463274763 0 0 0
4658 311 8 0 -1401.9619540760493 844.2059744957987 -1204.526529872762 0 0 0
4655 311 5 0 -1311.6088750790614 855.8792289892779 -1217.7569110481884 0 0 0
4662 311 12 0 -1210.3027501476743 854.4321694618562 -1235.985945780817 0 0 0
4088 273 8 0 -995.5049800089613 838.4586683215343 -1222.1241518998258 0 0 0
4081 273 1 0 -941.4945626306339 834.9941254856042 -1268.7120773636639 0 0 0
4660 311 10 1 -1182.986587963311 902.5960462668046 -1207.2218749240499 0 0 0
4360 291 10 1 -2125.9104981325304 1256.7532777779354 -1265.6187962430006 0 0 0
4237 283 7 2 -2074.985326416044 1237.3212649168865 -1262.0100792080602 0 0 0
4172 279 2 0 -464.30202197640574 1210.5815145212543 -1210.858703948273 0 0 0
4174 279 4 0 -398.5701930858808 1232.6604323024007 -1219.9180657875372 0 0 0
4358 291 8 0 -2353.2151414970335 1281.6329471990405 -1207.831960216687 0 0 0
4362 291 12 0 -2141.36717730136 1298.7354274766958 -1225.7810463350215 0 0 0
4353 291 3 -1.5 -2144.5130938928746 1348.896168296951 -1216.8888537625958 0 0 0
4240 283 10 1 -2086.8908207417608 1286.6972089956655 -1227.3948216047424 0 0 0
5372 359 2 0 -355.42389562220575 1290.8164280983835 -1234.1198194952535 0 0 0
4363 291 13 -0.5 -2118.0822556637327 1382.8466555912496 -1215.42684708824 0 0 0
2409 161 9 0 -2304.4444175469757 1477.9396185748626 -1247.8809473425451 0 -1 0
3630 242 15 0 -119.60187114588928 -1431.2126164474826 -1193.6383846204667 0 0 0
2402 161 2 0 -2239.145265053577 -1424.4303040134225 -1186.2563768112532 0 0 0
2404 161 4 0 -2204.8439926458204 -1396.4079767324422 -1147.8525485177427 0 0 0
3626 242 11 1 -250.15749241378379 -1378.37066371894 -1184.505672375023 0 0 0
3625 242 10 1 -317.2710933077129 -1287.8581204758445 -1158.2656531078526 0 0 0
3622 242 7 2 -280.3877501930138 -1336.6558397223328 -1169.2068696307927 0 0 0
3627 242 12 0 -351.0128115580921 -1234.8701352008923 -1145.0889064264911 0 0 0
2656 178 1 0 -349.6180681600448 -856.097661347951 -1185.4530067936253 0 0 0
2663 178 8 0 -277.53566323555964 -860.8707148108726 -1167.2103052644732 0 0 0
2660 178 5 0 -216.62644456059905 -860.4719788780405 -1136.229723693109 0 0 0
2666 178 11 1 -21.509558157404904 -795.6134160385573 -1149.2017914563621 0 0 0
1617 108 12 0 -1389.7635056804181 -619.5092238934582 -1153.80110813044 0 0 0
1615 108 10 1 -1337.3538072609329 -611.6971559944802 -1186.0928589880145 0 0 0
1610 108 5 0 -1436.8863408753853 -542.2766594338761 -1172.2273628726634 0 0 0
1613 108 8 0 -1530.6780192965487 -500.19039939325637 -1192.4655609503207 0 0 0
928 62 13 -0.5 -966.9355766090434 -468.0529873226967 -1189.823309196847 0 0 0
918 62 3 -1.5 -923.8210303237887 -466.20994312460886 -1187.3248867169116 0 0 0
5531 369 11 1 -2722.2580920503096 -390.3579909032149 -1162.3305509864747 0 0 0
255 17 15 0 -940.1752075388621 -424.51942595078367 -1194.2188522269334 0 0 0
242 17 2 0 -899.4345268200174 -443.14973769304635 -1136.5901276058494 0 0 0
927 62 12 0 -892.109769874503 -425.35331982326375 -1185.186220232031 0 0 0
925 62 10 1 -836.3134415662147 -393.97478167811585 -1165.2159606909286 0 0 0
3388 226 13 -0.5 -756.8676680367553 -385.56463828538483 -1132.4117001974842 0 0 0
920 62 5 0 -972.1748957170389 -354.4042684877636 -1197.9371404489063 0 0 0
922 62 7 2 -783.1625114681668 -366.9125063064076 -1154.148942661073 0 0 0
3378 226 3 -1.5 -751.2458262174282 -343.7006184806438 -1125.5159149240583 0 0 0
926 62 11 1 -733.0089344226083 -348.00068977280154 -1150.5186972356055 0 0 0
924 62 9 0 -675.703298578263 -318.28517882922654 -1126.2288135826893 0 0 0
3125 209 5 0 -1371.948452318698 -161.5421643873786 -1169.1550115888256 0 0 0
655 44 10 1 -86.65814311829624 -165.45467211887657 -1199.7189835842237 0 0 0
652 44 7 2 -58.306038869404944 -191.54663994455126 -1151.2236695456554 0 0 0
5070 338 15 0 -827.6459212589449 -116.6858821489121 -1130.4261154402886 0 0 0
5057 338 2 0 -755.9690801193473 -149.05353541704997 -1184.7323120571934 0 0 0
3016 202 1 0 -793.6815178488065 324.67257539667816 -1166.2508392919058 0 0 0
3023 202 8 0 -773.2289805806034 356.9247727186864 -1143.6240679172374 0 0 0
1715 115 5 0 -552.6963213738845 353.30264295165085 -1170.0939473524184 0 0 0
1413 95 3 -1.5 -1674.7683680228824 536.6285787868492 -1193.5346464945255 0 0 0
4651 311 1 0 -1418.297787844326 824.9358783422463 -1150.214444248058 0 0 0
4657 311 7 2 -1149.4563001770994 942.7525966827518 -1174.251125209133 0 0 0
4093 273 13 -0.5 -1143.452449899041 954.4543636231398 -1139.003931676602 0 0 0
4092 273 12 0 -1061.3776928785678 964.9116822589693 -1145.4950553933406 0 0 0
4083 273 3 -1.5 -1109.3977745213388 972.7515614666125 -1157.1876826267217 0 0 0
4085 273 5 0 -1045.5173280950162 902.9323427847758 -1196.4644571749877 0 0 0
4066 272 1 0 -2638.840375667235 1026.652048811581 -1186.2220045970066 0 0 0
4073 272 8 0 -2632.316168096344 996.9553688217728 -1125.4878838181517 0 0 0
4661 311 11 1 -1119.1639229929965 975.7895643311477 -1144.345050265655 0 0 0
4665 311 15 0 -1006.6566042626632 1033.3638095313893 -1143.1713965526046 0 0 0
4652 311 2 0 -929.5546567132612 1053.0205787379464 -1139.2829423064359 0 0 0
4893 327 3 -1.5 -834.1613643082625 1106.0807111907707 -1129.9088724727812 0 0 0
4182 279 12 0 -829.8958384274979 1152.0934471087853 -1127.745574073641 0 0 0
4180 279 10 1 -768.929954964964 1155.7741064012134 -1133.892084208545 0 0 0
4177 279 7 2 -710.3327041288067 1175.7710589798455 -1141.2791165762617 0 0 0
4900 327 10 1 -728.2431061392364 1138.5850169614998 -1129.4685073908556 0 0 0
4901 327 11 1 -621.7295995087196 1182.922081304037 -1138.3851027454932 0 0 0
4897 327 7 2 -670.5077686540859 1159.7697626241097 -1135.0890538244116 0 0 0
4351 291 1 0 -2408.7314719126093 1270.7374706811581 -1192.2502218388822 0 0 0
4355 291 5 0 -2262.653738887507 1269.6652447219092 -1183.3814170124 0 0 0
4181 279 11 1 -662.2214092875898 1201.5187097941682 -1147.050625652788 0 0 0
4179 279 9 0 -599.3326839500819 1225.3170855155972 -1151.9033014767024 0 0 0
4899 327 9 0 -559.2170553815125 1202.8387845230056 -1129.0357699004833 0 0 0
4176 279 6 -0.5 -550.2577563204466 1249.4239489764327 -1142.7827283252607 0 0 0
4185 279 15 0 -545.6807871376058 1215.0904871240862 -1189.7654651494736 0 0 0
5381 359 11 1 -457.54244633664547 1228.0877390258436 -1145.7570442154006 0 0 0
4904 327 14 -1.5 -474.98839594273875 1251.6550778745939 -1144.988982031232 0 0 0
4896 327 6 -0.5 -506.84390799324416 1220.010553224243 -1141.4232689814191 0 0 0
5377 359 7 2 -509.8750677378681 1236.2853235476741 -1132.8484134183595 0 0 0
4184 279 14 -1.5 -512.4139794562881 1269.9329553389487 -1152.9379982685205 0 0 0
5379 359 9 0 -397.5714179727843 1216.5854261969425 -1171.5216732226097 0 0 0
5384 359 14 -1.5 -305.92105676999284 1229.837001145095 -1197.8516857561715 0 0 0
5385 359 15 0 -367.31430268062786 1264.8956547098037 -1195.8700343691137 0 0 0
5376 359 6 -0.5 -343.8555814381423 1215.6344156655634 -1179.4553980009946 0 0 0
4269 285 9 0 -366.353390033094 1246.894252984322 -1150.1649564063864 0 0 0
4266 285 6 -0.5 -317.8931323333301 1266.6266282049107 -1163.3965015402632 0 0 0
4275 285 15 0 -313.43741866647537 1239.8524713029158 -1129.506446718564 0 0 0
4274 285 14 -1.5 -282.7716945411414 1265.1881967360139 -1190.123103975739 0 0 0
4235 283 5 0 -2196.21076787823 1338.2809808073343 -1177.2377667079024 0 0 0
4242 283 12 0 -2096.743118931446 1342.546220521093 -1199.602949633746 0 0 0
2414 161 14 -1.5 -2288.894537879474 1423.312237917783 -1170.5691107505902 0 -1 0
4233 283 3 -1.5 -2080.3875119460577 1389.9887980496783 -1197.1524847418898 0 0 0
4243 283 13 -0.5 -2040.0731520207207 1405.8640236423948 -1196.6238245177767 0 0 0
2406 161 6 -0.5 -2295.5430202349653 1459.0555809626676 -1195.7203242826004 0 -1 0
4261 285 1 0 -628.1445443949146 1426.2175813774325 -1140.7080597479132 0 0 0
3856 258 1 0 -343.9324987634001 -1352.7065787071606 -1068.5524877589078 0 0 0
3623 242 8 0 -511.6930340000752 -1259.1742821116325 -1085.2957665752724 0 0 0
3620 242 5 0 -434.5758874720994 -1258.7687701236598 -1121.655771877973 0 0 0
3618 242 3 -1.5 -347.6400728591127 -1192.954019650713 -1120.7432575197136 0 0 0
3628 242 13 -0.5 -326.39759045158996 -1176.9503335105098 -1087.4720643710116 0 0 0
1308 88 3 -1.5 -174.11927192763568 -905.5282780728722 -1074.2494254037688 0 0 0
1318 88 13 -0.5 -209.3939917620315 -892.5218525781274 -1094.28632058087 0 0 0
2667 178 12 0 -169.75736299325337 -862.6997716614021 -1084.3978423073602 0 0 0
2665 178 10 1 -117.76191176295087 -835.98901706771 -1099.8475590398812 0 0 0
1310 88 5 0 -156.31927615729626 -805.9594652869866 -1055.6202909546348 0 0 0
2662 178 7 2 -64.97411178768284 -815.2321219155637 -1123.4824685873916 0 0 0
1618 108 13 -0.5 -1439.8835257495323 -627.440941970738 -1087.1173727288374 0 0 0
1608 108 3 -1.5 -1412.8654554330353 -641.9145218460473 -1117.087685188695 0 0 0
244 17 4 0 -880.9231073523587 -449.38681579735527 -1088.260309350735 0 0 0
5529 369 9 0 -2706.788887430864 -354.8676421501766 -1111.5320668883155 0 0 0
5526 369 6 -0.5 -2706.706198986401 -335.9413753361634 -1059.364700287411 0 0 0
5535 369 15 0 -2659.497406990635 -347.746317499155 -1080.2023802581532 0 0 0
3387 226 12 0 -716.9076355856012 -313.66495399838215 -1105.1084919348016 0 0 0
930 62 15 0 -607.8214418977435 -334.798341260169 -1105.3983807204145 0 0 0
3385 226 10 1 -656.3142022119008 -306.9873184938379 -1083.5269222479994 0 0 0
3382 226 7 2 -596.9622459724745 -307.5603216697002 -1066.0415462474432 0 0 0
917 62 2 0 -554.7823328601506 -305.6668062318023 -1108.3754469181144 0 0 0
5443 363 13 -0.5 -571.2630022326202 -335.8775578394022 -1069.3942255919917 0 0 0
3386 226 11 1 -543.9151604624382 -313.1230647999747 -1055.1345573909302 0 0 0
5433 363 3 -1.5 -531.0374755037733 -325.0329557884066 -1058.2209431778392 0 0 0
921 62 6 -0.5 -643.1412317881484 -283.9171496135055 -1100.04036908704 0 0 0
929 62 14 -1.5 -602.6876719633506 -272.24393973561735 -1084.0871795835717 0 0 0
5438 363 8 0 -621.6722227702031 -228.35715256867283 -1092.127635623885 0 0 0
5435 363 5 0 -565.528285453669 -236.48222631205618 -1052.5323177362463 0 0 0
919 62 4 0 -512.6103860746648 -287.93616834527035 -1091.0133111537825 0 0 0
654 44 9 0 -15.98500851674689 -258.90513071270794 -1062.3395236962176 0 0 0
3124 209 4 0 -892.3743642690845 -162.8658298643496 -1060.3781202029743 0 0 0
3376 226 1 0 -876.992550261028 -186.93843416155664 -1089.3358167840622 0 0 0
3380 226 5 0 -762.3342511432529 -222.79563603787508 -1114.4737929857624 0 0 0
3383 226 8 0 -813.7116308039966 -182.8521896472825 -1107.3188072377238 0 0 0
5069 338 14 -1.5 -815.23697896717 -185.75847657781463 -1056.056989650073 0 0 0
5431 363 1 0 -650.4482291784624 -197.7888731916098 -1101.4943832946733 0 0 0
656 44 11 1 -39.723787974690545 -220.01279409789697 -1109.2620287901727 0 0 0
3133 209 13 -0.5 -1411.567022745467 -100.00302635735729 -1050.2879181704045 0 0 0
3132 209 12 0 -1337.372672870665 -145.3170817704215 -1064.8838472800064 0 0 0
3127 209 7 2 -1214.5735937625439 -123.98738966715281 -1057.5333214512516 0 0 0
3130 209 10 1 -1274.9522403364715 -131.60241366638755 -1065.3433537399558 0 0 0
3131 209 11 1 -1161.125245023969 -112.07407956602547 -1058.4484818842434 0 0 0
5058 338 3 -1.5 -1160.617631607507 -83.861300062283 -1066.3867593411119 0 0 0
3129 209 9 0 -1094.0074534000744 -105.99688392431672 -1066.1285712781814 0 0 0
3126 209 6 -0.5 -1045.0340803562176 -84.67071776463598 -1079.4205783516722 0 0 0
5062 338 7 2 -992.8356099589483 -80.37540236478945 -1065.6482943834824 0 0 0
5066 338 11 1 -939.8172319232507 -88.37168795896308 -1067.4238401641935 0 0 0
5061 338 6 -0.5 -835.6380861412333 -149.8188038931748 -1071.9012753111374 0 0 0
5064 338 9 0 -875.2091974626966 -110.91705682322514 -1072.6334918112898 0 0 0
5065 338 10 1 -1053.8491970469959 -72.86274936579923 -1070.594042647407 0 0 0
5067 338 12 0 -1116.139324325681 -62.14363819816549 -1069.5936414727996 0 0 0
3134 209 14 -1.5 -1016.0046360618503 -51.27172469483108 -1073.8514061956655 0 0 0
5060 338 5 0 -1138.8545775466691 53.791032414098815 -1058.4663854418557 0 0 0
5063 338 8 0 -1125.484658132305 143.71814686480892 -1051.448146236243 0 0 0
5056 338 1 0 -1077.9023102448718 165.94369662752442 -1056.2363023388857 0 0 0
1718 115 8 0 -541.9671257083475 352.87572251194155 -1095.280583388181 0 0 0
2399 160 14 -1.5 -557.8910676463929 384.16438517111874 -1057.0647493187344 0 0 0
3026 202 11 1 -552.9626272780802 400.6047674393146 -1076.7038198566747 0 0 0
3024 202 9 0 -499.1648740219553 426.50402061127494 -1104.5733060353243 0 0 0
3030 202 15 0 -460.64778812094426 441.47946715241676 -1077.037119397012 0 0 0
3021 202 6 -0.5 -455.2673040283531 457.1319528501335 -1112.5798134749582 0 0 0
3029 202 14 -1.5 -410.6561673035249 461.2811927812517 -1113.1530558747427 0 0 0
3061 205 1 0 -2817.447698204701 529.5370669633312 -1082.285100977597 0 0 0
5163 345 3 -1.5 -2129.8915285217663 668.1111869795677 -1088.3201074685435 0 0 0
5173 345 13 -0.5 -2151.9967052162106 679.4342242660098 -1123.4343292873327 0 0 0