LAMMPS data file via write_data, version 27 Jun 2024, timestep = 16320000, units = real

5730 atoms
15 atom types
5549 bonds
16 bond types
5730 angles
15 angle types

-3000 3000 xlo xhi
-1500 1500 ylo yhi
-1500 1500 zlo zhi

Masses

1 241.19
2 73.54000000000001
3 330.71
4 235.16
5 68.06999999999999
6 353.53
7 223.38
8 41.1
9 216.91
10 155.15
11 147.32
12 264.65
13 300.8
14 326.05
15 85.20999999999999

Pair Coeffs # lj/cut/coul/debye/gpu

1 0.71637 40.7505
2 0.665709 48.1397
3 1.15033 39.2216
4 0.726774 43.8077
5 0.514724 53.3428
6 1.17127 41.7847
7 1.2256 38.5601
8 0.675431 54.5696
9 1.26117 43.78
10 0.939007 42.5209
11 0.960667 41.1825
12 1.30988 48.0761
13 1.36645 37.7114
14 1.35529 39.2179
15 0.592003 47.2602

Bond Coeffs # harmonic

1 0.003 59.228
2 0.008 56.48
3 0.001 69.324
4 3.207 42.88
5 0.11 49.807
6 0.002 74.968
7 0.001 91.635
8 0.145 54.383
9 2.709 44.406
10 1.71 61.679
11 1.625 54.051
12 0.207 66.185
13 0.002 64.76
14 0.079 63.886
15 0.2 40
16 0.2 40

Angle Coeffs # harmonic

1 11.427 158.273
2 50.464 132.042
3 8.207 156.514
4 92.705 149.394
5 100 174.44
6 3.15 145.53
7 48.938 159.031
8 17.401 129.945
9 15.735 56.441
10 60 172.254
11 60.285 168.396
12 11.83 99.091
13 150 107.995
14 27.746 149.925
15 7.483 160.775

Atoms # full

2411 161 11 1 -2229.6991141050275 -1428.608282743103 -1459.3091635828018 0 0 0
2563 171 13 -0.5 -1528.1746025829834 -1444.5543796311706 -1444.317637231666 0 0 1
3769 252 4 0 -1549.5329885443819 -1351.5440023512435 -1455.5790299868204 0 0 0
3767 252 2 0 -1597.1936424301211 -1306.2376204865013 -1439.1169161182052 0 0 0
2556 171 6 -0.5 -1208.5877485016972 -1315.9403537093747 -1427.768739931297 0 0 1
3780 252 15 0 -1701.1126745067436 -1245.6820331555512 -1461.62379557517 0 0 0
2558 171 8 0 -1580.360645420358 -1267.3366328453621 -1470.5640603189725 0 0 1
2565 171 15 0 -1215.114535993091 -1274.1690633156381 -1480.3647242119737 0 0 1
3772 252 7 2 -1875.6469130186101 -1186.5987186367454 -1445.611165643367 0 0 0
3776 252 11 1 -1830.2830299373854 -1199.9472875209476 -1472.4894596777715 0 0 0
1084 73 4 0 -2445.759541467697 -997.5672778016747 -1469.2768776126018 0 0 1
2930 196 5 0 -2538.104832746155 -389.05633298864217 -1466.1530559153443 0 0 0
965 65 5 0 -2824.1852564523856 -302.67041117252137 -1450.1656479561339 0 0 0
964 65 4 0 -2416.6474341175726 -311.5231949121583 -1428.2641417031814 0 0 0
2586 173 6 -0.5 -1674.9532503541388 -315.30974398920256 -1444.257112664934 0 0 1
2589 173 9 0 -1661.6628009343399 -304.65375174912833 -1495.6324002279102 0 0 1
968 65 8 0 -2882.2092307768835 -243.13918882822063 -1495.2871740641287 0 0 0
2595 173 15 0 -1624.8933054276563 -292.9993043689971 -1443.652811511329 0 0 1
961 65 1 0 -2908.423167115893 -191.5457358986474 -1477.471862118951 0 0 0
2929 196 4 0 -2210.2273489180798 -143.9351969479277 -1440.3442347856117 0 0 0
1069 72 4 0 -497.4330988005385 -68.50569146674445 -1490.521797340492 0 0 1
1063 71 13 -0.5 -664.9852695019963 433.4091968904542 -1436.959868757975 0 0 0
1055 71 5 0 -561.1987624879639 409.4846060601284 -1471.6135650686053 0 0 0
4930 329 10 1 -1925.9777761300184 550.2686245682593 -1485.1255429106025 0 0 0
4927 329 7 2 -1899.738183053889 563.0663154918528 -1430.6228434498282 0 0 0
4480 299 10 1 -1961.774218987189 986.8304678042858 -1493.6964840032872 0 0 0
4477 299 7 2 -1918.4939365505402 1006.9499568018962 -1454.3484508316194 0 0 0
2409 161 9 0 -2239.9489117328817 -1414.5803715987392 -1394.8196093568197 0 0 0
2553 171 3 -1.5 -1529.4399985283865 -1409.5535525059322 -1419.679127164903 0 0 1
2562 171 12 0 -1487.9387651520774 -1390.9539280330305 -1396.8467842509583 0 0 1
2560 171 10 1 -1428.4538604851273 -1377.1419978253748 -1395.436069788112 0 0 1
2557 171 7 2 -1372.4423433850802 -1353.4785650352778 -1402.312816019375 0 0 1
2555 171 5 0 -1541.3710444255964 -1299.5598809658118 -1419.308699744047 0 0 1
2561 171 11 1 -1325.0099295836887 -1327.5901208370315 -1408.9467697769073 0 0 1
2559 171 9 0 -1261.2267927161 -1311.2437573177424 -1419.2471922174764 0 0 1
2564 171 14 -1.5 -1167.7025003893787 -1301.3310832197878 -1421.0148025147353 0 0 1
3616 242 1 0 -307.88674923590327 -1233.587944676932 -1384.3701949256886 0 0 0
3768 252 3 -1.5 -2021.113902793514 -1163.6497755709245 -1366.8046523349196 0 0 0
3777 252 12 0 -1972.7837522322525 -1153.474565619608 -1381.9006784367868 0 0 0
3775 252 10 1 -1926.242905153081 -1175.6092808724231 -1412.1317776139415 0 0 0
1804 121 4 0 -2556.4796033250636 -793.949342873653 -1367.421038479653 0 0 0
1814 121 14 -1.5 -2571.9923483355637 -703.2514326973021 -1421.2687099277778 0 0 0
1802 121 2 0 -2568.2920710310395 -731.1390900119671 -1354.8195891747876 0 0 0
1815 121 15 0 -2574.493353032297 -663.9787334924396 -1373.7247586072317 0 0 0
1806 121 6 -0.5 -2598.9340785350023 -667.5588247979589 -1421.5170829295814 0 0 0
1809 121 9 0 -2613.629098984509 -617.0190285525465 -1406.586464826595 0 0 0
1811 121 11 1 -2618.6937813652557 -551.647772678831 -1397.09178764492 0 0 0
1807 121 7 2 -2625.4590444880955 -500.9107463772579 -1379.2193363673791 0 0 0
241 17 1 0 -1209.2036406434427 -504.1096508154295 -1412.6208775360908 0 0 0
248 17 8 0 -1231.0518876103738 -524.9087193181784 -1365.0906333641983 0 0 0
973 65 13 -0.5 -2828.2943078503977 -439.8406122654776 -1375.2487210742227 0 0 0
963 65 3 -1.5 -2804.04904376254 -426.0938501810796 -1407.7435939661727 0 0 0
972 65 12 0 -2762.5481890398914 -396.3955452492219 -1409.1393011172775 0 0 0
970 65 10 1 -2705.3800608470733 -375.4816718632278 -1390.5457779499075 0 0 0
1810 121 10 1 -2625.886764050464 -442.9853454271441 -1357.4800410575076 0 0 0
967 65 7 2 -2652.4647579859943 -348.8832583788956 -1372.1078580471785 0 0 0
2928 196 3 -1.5 -2613.7435170901954 -350.1343855291085 -1363.0306954088474 0 0 0
2937 196 12 0 -2561.014852878605 -347.7578726223963 -1364.2459614700645 0 0 0
971 65 11 1 -2604.735853257947 -324.74646552515145 -1364.591231935369 0 0 0
2594 173 14 -1.5 -1664.4139520537387 -319.6214744343757 -1401.428479178392 0 0 1
646 44 1 0 -340.2796128319292 -356.40693690049727 -1410.6607794429947 0 0 0
653 44 8 0 -308.3879563507157 -303.0136023505159 -1411.624651454735 0 0 0
975 65 15 0 -2507.425789924474 -273.89988494197235 -1356.394233816587 0 0 0
962 65 2 0 -2449.390826803146 -282.845935991151 -1375.9388226864862 0 0 0
2582 173 2 0 -1601.333852190547 -252.48629908275598 -1392.6042786213113 0 0 1
2927 196 2 0 -2240.6774672948363 -171.09396510287326 -1385.948422047952 0 0 0
2584 173 4 0 -1569.2660342065142 -211.30704238028952 -1377.7635371038405 0 0 1
650 44 5 0 -295.66786288193975 -220.38870864944087 -1398.5895232282103 0 0 0
657 44 12 0 -264.64978486199027 -135.0235711555476 -1368.2689706530584 0 0 0
648 44 3 -1.5 -275.37387564552415 -108.53637375490513 -1407.7562293738845 0 0 0
658 44 13 -0.5 -268.76789083397114 -67.8041412119413 -1418.760864070967 0 0 0
1053 71 3 -1.5 -652.3598731136773 447.1246923925358 -1398.1246150402542 0 0 0
1062 71 12 0 -606.5522672077512 452.5331936985527 -1379.219081671617 0 0 0
4931 329 11 1 -1875.652106531414 570.2529538227275 -1382.885670360237 0 0 0
1418 95 8 0 -1765.3615560969583 582.8323056753096 -1368.3132346445966 0 0 0
1411 95 1 0 -1841.0493873954772 604.3994498121104 -1370.6602200704176 0 0 0
4481 299 11 1 -1879.113105089978 1025.8768013306294 -1422.5481707968274 0 0 0
4479 299 9 0 -1825.8902150336846 1038.3674581942055 -1382.6477833174968 0 0 0
4485 299 15 0 -1794.9054621025925 1020.4054437470406 -1361.4330641658637 0 0 0
4476 299 6 -0.5 -1785.3913040340353 1064.5533530506561 -1356.3446025299172 0 0 0
4484 299 14 -1.5 -1747.0202986723925 1086.357980112819 -1357.0949458202094 0 0 0
2414 161 14 -1.5 -2269.01045135887 -1435.8612567163805 -1309.2336770301536 0 0 0
2406 161 6 -0.5 -2267.135813342621 -1415.3648453969145 -1348.9595149649056 0 0 0
2415 161 15 0 -2200.9831334576766 -1416.7574063236693 -1334.6561057478584 0 0 0
2402 161 2 0 -2162.835121914236 -1393.42334743632 -1301.8382354083433 0 0 0
2404 161 4 0 -2114.859091726429 -1393.6874450192033 -1294.8829594172867 0 0 0
3623 242 8 0 -265.9823681262719 -1230.3693513711685 -1341.8640325538238 0 0 0
3778 252 13 -0.5 -2047.3140411497059 -1139.3078012505239 -1342.8624669301296 0 0 0
3770 252 5 0 -1933.2275973488026 -1082.230341704929 -1328.5815454587673 0 0 0
1609 108 4 0 -1069.8319024718644 -678.6920231635405 -1311.248103218367 0 0 0
1607 108 2 0 -1091.1043380746112 -628.1547463404902 -1281.3593051456182 0 0 0
245 17 5 0 -1223.3095079128539 -543.5313090613674 -1294.7562566921665 0 0 0
916 62 1 0 -981.4975223240642 -466.2461878460956 -1290.4385894329218 0 0 0
1812 121 12 0 -2621.026631402046 -380.7158000003062 -1328.646201526994 0 0 0
2938 196 13 -0.5 -2642.219271504583 -328.4099169908007 -1340.037710133339 0 0 0
1803 121 3 -1.5 -2588.340988321798 -339.62915740105075 -1324.320364824409 0 0 0
1813 121 13 -0.5 -2546.0459205725306 -342.1862295246554 -1318.631352852568 0 0 0
2935 196 10 1 -2510.1092476409412 -323.7394552175709 -1343.1310965772477 0 0 0
2932 196 7 2 -2453.66785605127 -302.2777910594999 -1328.4026457397456 0 0 0
974 65 14 -1.5 -2466.1997830994333 -308.6732675566372 -1292.626796533709 0 0 0
969 65 9 0 -2548.806524746761 -297.843140867304 -1340.722588904578 0 0 0
966 65 6 -0.5 -2504.2232705213105 -293.4128497717598 -1310.3268686023105 0 0 0
2936 196 11 1 -2402.4984182652374 -289.16148775757944 -1316.8179154473814 0 0 0
2934 196 9 0 -2343.7986080852747 -263.3976487981952 -1299.3233529547374 0 0 0
2931 196 6 -0.5 -2291.3602163045352 -260.35917270281993 -1299.793888479934 0 0 0
2939 196 14 -1.5 -2253.400674739303 -254.1082397013342 -1277.0053217769182 0 0 0
2940 196 15 0 -2295.013268161931 -229.03840851424303 -1341.5194983753381 0 0 0
655 44 10 1 -231.75958556424172 -142.86125890445354 -1314.0715742683312 0 0 0
1711 115 1 0 -508.39059830997695 293.36582782195046 -1281.5931212614769 0 0 0
1715 115 5 0 -468.7168224645661 411.4936446149302 -1284.3360908481673 0 0 0
1060 71 10 1 -561.5586243840625 459.02956153515595 -1336.9018653211035 0 0 0
1057 71 7 2 -510.8630875928988 463.5649706665982 -1302.7207705443782 0 0 0
1061 71 11 1 -461.3522538896478 462.9936049777851 -1281.729338094728 0 0 0
1723 115 13 -0.5 -518.7702072531121 493.97124420671645 -1280.2034925227404 0 0 0
4929 329 9 0 -1864.8239765108126 588.489281713433 -1321.0732532147347 0 0 0
4935 329 15 0 -1829.2833173181707 565.554869809795 -1284.8333783920093 0 0 0
1415 95 5 0 -1709.8755824130524 580.3275900424849 -1341.1270673898146 0 0 0
1422 95 12 0 -1598.0525437839553 580.8825793643699 -1284.7727696875077 0 0 0
1413 95 3 -1.5 -1575.5626596978711 549.8114128028908 -1314.1566567726263 0 0 0
1423 95 13 -0.5 -1533.4342259744567 544.7363431148077 -1321.5484979620562 0 0 0
4926 329 6 -0.5 -1844.5479984717288 622.1063831765229 -1284.9281870251673 0 0 0
4663 311 13 -0.5 -1260.431861682431 761.6613762329154 -1334.8295659150306 0 0 0
4653 311 3 -1.5 -1262.6244703970874 793.9962089215952 -1306.309718406999 0 0 0
4662 311 12 0 -1229.0234837503301 824.9982748823272 -1283.796855106571 0 0 0
4660 311 10 1 -1171.5691657419632 846.785442272512 -1277.3911449087357 0 0 0
4354 291 4 0 -2054.8760668445325 947.4602753258054 -1289.9101716484774 0 0 0
4352 291 2 0 -2038.2942184014762 983.9863848875411 -1302.299839568287 0 0 0
4234 283 4 0 -1831.6684476885907 1046.2748381809813 -1331.0877498887144 0 0 0
4472 299 2 0 -1760.183561536887 989.3191656957596 -1308.3880277105193 0 0 0
4365 291 15 0 -2002.6528122714287 1069.713179380103 -1303.109558629435 0 0 0
4356 291 6 -0.5 -1965.4597985750988 1110.1565996302961 -1323.9010696451905 0 0 0
4244 283 14 -1.5 -1955.5509593678526 1081.2125596162487 -1285.3479795406165 0 0 0
4236 283 6 -0.5 -1989.878970040447 1109.3396620317583 -1281.234303745838 0 0 0
4364 291 14 -1.5 -1922.6212067963806 1099.3528891025303 -1317.6394296395024 0 0 0
4232 283 2 0 -1869.9686694932448 1081.005765536043 -1300.625533115444 0 0 0
4359 291 9 0 -2009.904379031111 1140.530887333289 -1307.823225820614 0 0 0
4245 283 15 0 -1937.1078712858628 1140.5216419557123 -1290.68470584112 0 0 0
4351 291 1 0 -2165.84660357349 -1498.5900092458467 -1235.4013458587285 0 1 0
3624 242 9 0 -59.796741400797295 -1438.9921151884466 -1205.5011330165269 0 0 0
3621 242 6 -0.5 -33.40278881497364 -1480.0597759261473 -1229.193723585873 0 0 0
3630 242 15 0 -7.187354977032352 -1428.8392806317406 -1229.3235674944756 0 0 0
3620 242 5 0 -256.88354704748065 -1227.7644484927464 -1242.779369853079 0 0 0
3773 252 8 0 -1887.140085310114 -1058.2234567576943 -1267.6024689155176 0 0 0
3766 252 1 0 -1850.1637415877321 -1023.9881519551845 -1250.6245575248633 0 0 0
2656 178 1 0 -336.72675760506 -652.0948640639587 -1211.7299583764595 0 0 0
1616 108 11 1 -1242.1226248769428 -562.6755606104181 -1202.9482116673576 0 0 0
252 17 12 0 -1214.8190053044946 -527.3856239875366 -1222.880558137366 0 0 0
243 17 3 -1.5 -1261.1411680159895 -531.9350938113051 -1202.6166110595138 0 0 0
1620 108 15 0 -1144.3330743791553 -594.7269251788537 -1253.4067575321967 0 0 0
1614 108 9 0 -1176.6540573619175 -564.6323826149018 -1220.1119140193919 0 0 0
1611 108 6 -0.5 -1128.7159516188715 -543.385452702362 -1231.5085064691243 0 0 0
250 17 10 1 -1150.5935670193844 -523.3067288280679 -1211.2804721504692 0 0 0
1619 108 14 -1.5 -1098.0008151710927 -511.57674649428765 -1227.7408483845345 0 0 0
1805 121 5 0 -2635.4151846072286 -396.4060175303869 -1225.8769334200872 0 0 0
923 62 8 0 -956.3346692555881 -431.39026560477976 -1242.7161284522979 0 0 0
656 44 11 1 -177.0589550019032 -171.2328782454442 -1216.1407390283607 0 0 0
652 44 7 2 -205.71902394080496 -155.57435559411567 -1259.466302325737 0 0 0
5059 338 4 0 -754.1608185343111 116.99517094874153 -1255.4869127838087 0 0 0
5057 338 2 0 -758.3935663485728 85.7124640567593 -1220.272747029324 0 0 0
1718 115 8 0 -502.34875690252437 343.14249144457443 -1266.2231845888036 0 0 0
1716 115 6 -0.5 -162.89960861031733 437.10153983006063 -1206.3403583166055 0 0 0
1714 115 4 0 -6.067430236352728 449.93172889611304 -1203.5891797552463 0 0 0
4922 329 2 0 -1794.5881231644642 521.1354424711068 -1233.4992138047892 0 0 0
4924 329 4 0 -1780.8435729853177 463.0101102132956 -1208.532028027899 0 0 0
1713 115 3 -1.5 -484.3044111054038 518.7186699090362 -1274.092722748244 0 0 0
1722 115 12 0 -435.25125415599393 506.5913023597445 -1273.1184413781154 0 0 0
1059 71 9 0 -398.56574254423936 467.71252959414034 -1263.7291724400607 0 0 0
1720 115 10 1 -375.9616242649162 501.9791154252886 -1247.2931303798282 0 0 0
1056 71 6 -0.5 -348.78710807632774 453.4911873873137 -1250.2842697769026 0 0 0
1065 71 15 0 -356.6607120279115 495.8764803210322 -1205.8447633145295 0 0 0
1717 115 7 2 -316.8395647550553 498.81083548277184 -1228.144871418369 0 0 0
1064 71 14 -1.5 -306.37433496667154 466.4968206794514 -1247.2110215583996 0 0 0
1721 115 11 1 -263.72266869783243 492.5973225452449 -1221.4792885117945 0 0 0
1719 115 9 0 -203.9645673909619 471.09763113735175 -1212.4886042524965 0 0 0
1725 115 15 0 -145.07274501556108 493.56855537016514 -1218.227843602852 0 0 0
1712 115 2 0 -54.982515583974354 481.9013658577703 -1201.7965249880597 0 0 0
4934 329 14 -1.5 -1843.4375089773434 636.2213040084583 -1242.6684020626974 0 0 0
1420 95 10 1 -1602.9259709933424 613.1077674702392 -1228.6893935438773 0 0 0
4655 311 5 0 -1263.1630088171496 822.4753174500253 -1219.190917415233 0 0 0
4657 311 7 2 -1117.9405599852762 871.3167612311162 -1261.7673834959105 0 0 0
4093 273 13 -0.5 -1114.7151491246723 860.9411652601651 -1222.5371624878883 0 0 0
4661 311 11 1 -1074.1131397444128 896.0286282056122 -1242.8039778367315 0 0 0
4083 273 3 -1.5 -1095.2890239747014 898.6018010774545 -1215.3058254819728 0 0 0
4474 299 4 0 -1740.2026830084444 962.8258259671863 -1253.9275661510906 0 0 0
4659 311 9 0 -1023.5109725643982 933.0841149779781 -1220.599757887134 0 0 0
4656 311 6 -0.5 -974.329414370434 951.1054381663118 -1214.2745834194252 0 0 0
4665 311 15 0 -1013.5445235038377 991.9260837268318 -1218.6929269907891 0 0 0
5628 376 3 -1.5 -967.4410624369461 999.5950705691001 -1204.9471599446056 0 0 0
4173 279 3 -1.5 -829.3743942724586 1082.7320007897572 -1201.1113609704228 0 0 0
4182 279 12 0 -793.0615719586283 1114.4090900722413 -1203.4825069133192 0 0 0
4361 291 11 1 -2035.980069732332 1189.3243843074524 -1267.9460615949758 0 0 0
4239 283 9 0 -2006.7112568399325 1157.2561711458725 -1264.570723536377 0 0 0
4175 279 5 0 -843.4655974904973 1174.574104401695 -1236.105252485339 0 0 0
4231 283 1 0 -2276.3564400399778 1261.008396350809 -1258.4814107248408 0 0 0
4360 291 10 1 -2102.295173018357 1256.5844135534714 -1201.9318359126012 0 0 0
4241 283 11 1 -2027.9154963487374 1206.0317107661251 -1225.5845906075674 0 0 0
4357 291 7 2 -2065.3788012218006 1221.231765960642 -1236.5129916942235 0 0 0
4237 283 7 2 -2054.242307550586 1246.666978013424 -1202.7500990951487 0 0 0
4891 327 1 0 -957.2481401594218 1214.3031141046051 -1230.3214273116428 0 0 0
4178 279 8 0 -872.3406953922082 1253.5700766729851 -1241.4837123945526 0 0 0
4238 283 8 0 -2264.5902185104733 1328.4563133142035 -1233.5436123165448 0 0 0
2176 146 1 0 -934.5303449687507 1276.7013387176214 -1203.6445107401014 0 0 0
4171 279 1 0 -849.0977747866913 1292.6775201261848 -1257.0550161411027 0 0 0
4355 291 5 0 -2158.1536669724883 1365.2013993699586 -1231.8567254572097 0 0 0
4358 291 8 0 -2165.656727545158 1439.63780864233 -1240.4052545466864 0 0 0
3622 242 7 2 -155.83355441633128 -1372.465619779155 -1176.6635960405597 0 0 0
3626 242 11 1 -113.12186616079099 -1404.711852715812 -1185.8407041758037 0 0 0
3627 242 12 0 -245.9561566029624 -1291.443682272461 -1151.0608024804378 0 0 0
3625 242 10 1 -205.61389176564884 -1336.9251906176196 -1167.2400250605424 0 0 0
2666 178 11 1 -65.31603102594474 -816.0837696466378 -1140.5429264597024 0 0 0
2664 178 9 0 -2.37270662034068 -813.3164758853354 -1162.7791636160966 0 0 0
2663 178 8 0 -318.93621687569 -662.6704130586763 -1160.7527063032219 0 0 0
1608 108 3 -1.5 -1458.8264950261816 -581.4023454013703 -1195.00567858001 0 0 0
1618 108 13 -0.5 -1499.252752712211 -583.8561882760148 -1181.7656882577212 0 0 0
1617 108 12 0 -1420.6902949712849 -555.9894224925569 -1182.1412771325108 0 0 0
1615 108 10 1 -1355.2552619680555 -556.0933658689141 -1184.7334462342315 0 0 0
1612 108 7 2 -1294.717513185265 -557.7375772962697 -1193.553212625449 0 0 0
253 17 13 -0.5 -1276.5910586744765 -537.2275155697229 -1163.2685797928225 0 0 0
247 17 7 2 -1090.6442095715927 -529.9829656611236 -1196.7715558276493 0 0 0
251 17 11 1 -1039.779418136087 -536.0728753403446 -1179.1481648325778 0 0 0
249 17 9 0 -976.5476765380688 -528.3553016916447 -1164.0911321942492 0 0 0
246 17 6 -0.5 -924.8196049185716 -546.1250068847278 -1150.2259670386131 0 0 0
5533 369 13 -0.5 -2709.1636568813915 -493.3614771626195 -1147.083881918109 0 0 0
5523 369 3 -1.5 -2674.6703576126124 -515.5282017205842 -1133.6568651333478 0 0 0
1808 121 8 0 -2652.5108898912663 -398.82797483419847 -1150.160205240789 0 0 0
920 62 5 0 -939.2312765986023 -443.6509945335368 -1182.697414837988 0 0 0
3128 209 8 0 -1153.1069725490886 -171.42882491094122 -1139.4724081548604 0 0 0
3121 209 1 0 -1113.2550087843958 -153.16214421131002 -1179.8025315838606 0 0 0
654 44 9 0 -151.49733549593242 -190.2685279975682 -1158.8042765185196 0 0 0
660 44 15 0 -110.38313537283766 -158.8211358645552 -1137.8848596494804 0 0 0
5070 338 15 0 -773.6645172669181 83.76199370837212 -1140.0583453658735 0 0 0
1724 115 14 -1.5 -148.15567015162458 397.81752570439306 -1192.8975528695698 0 0 0
1052 71 2 0 -346.34761883256755 520.6478450416344 -1183.7324028506998 0 0 0
4681 313 1 0 -2709.4462838825534 555.3218380591138 -1143.1638501074663 0 0 0
1054 71 4 0 -343.9225955842158 561.7584032531885 -1139.5632599244548 0 0 0
1417 95 7 2 -1602.8276513665883 655.9834485936647 -1184.2149662966415 0 0 0
1421 95 11 1 -1599.2266853268652 691.8522985387259 -1144.4912235580757 0 0 0
4693 313 13 -0.5 -2889.2133387928207 754.4310545654348 -1133.1873511227197 0 0 0
4088 273 8 0 -938.0536763542576 789.9469695720904 -1183.1879848786202 0 0 0
4081 273 1 0 -893.4244410909442 802.8984920399105 -1171.9630370796124 0 0 0
4066 272 1 0 -2699.285285974363 863.6024772598821 -1128.1033513201255 0 0 0
1414 95 4 0 -1701.7027220290624 873.5586239311375 -1198.795490155955 0 0 0
1412 95 2 0 -1688.4238019248792 844.6090888809122 -1150.5490501403667 0 0 0
4658 311 8 0 -1268.7775654608806 853.9739255691585 -1145.2712000373263 0 0 0
4085 273 5 0 -1014.6517074934161 840.3738918386418 -1191.6523641686297 0 0 0
4651 311 1 0 -1286.037939165282 927.9468612586495 -1138.917543098012 0 0 0
4092 273 12 0 -1058.5739811372205 911.9380106481102 -1184.2640230048155 0 0 0
4090 273 10 1 -1010.7181475935105 956.6725879855704 -1174.0770630481911 0 0 0
5638 376 13 -0.5 -992.9848273255988 972.0317201681487 -1184.219914418918 0 0 0
4664 311 14 -1.5 -946.5468259624436 982.123907026287 -1197.351763144733 0 0 0
4087 273 7 2 -959.8037312329686 989.5503182886285 -1162.1460733772378 0 0 0
4091 273 11 1 -916.7445084765583 1019.3863575223642 -1148.945168881473 0 0 0
5637 376 12 0 -945.1013112222189 1041.9084967857923 -1190.3447826833901 0 0 0
4652 311 2 0 -992.7924658524335 1051.7423208352322 -1179.5154063984314 0 0 0
4654 311 4 0 -947.1861042258222 1084.6095056069971 -1157.868152620781 0 0 0
4089 273 9 0 -859.8118707439074 1050.1906591044471 -1145.0425774896005 0 0 0
5635 376 10 1 -891.7835515472797 1076.5325089271114 -1181.6976206705117 0 0 0
4183 279 13 -0.5 -865.0772085559779 1079.2865241816378 -1178.4366987891597 0 0 0
5632 376 7 2 -841.1329008298096 1108.9146265829086 -1165.9013555250935 0 0 0
4086 273 6 -0.5 -826.4634054048049 1092.9774410202508 -1137.740739476677 0 0 0
4903 327 13 -0.5 -827.3741518106623 1085.659524283303 -1195.39124007313 0 0 0
4893 327 3 -1.5 -792.596651847885 1078.108877643427 -1170.9082451109766 0 0 0
4902 327 12 0 -768.8656412330389 1100.464816586576 -1137.5659091176403 0 0 0
4895 327 5 0 -852.2981852292853 1177.6624335096121 -1140.6032931325421 0 0 0
4094 273 14 -1.5 -807.2201835821193 1129.1275824800975 -1154.8143569480515 0 0 0
5636 376 11 1 -796.3528632173486 1137.33398575213 -1156.6318040013236 0 0 0
4180 279 10 1 -745.3069321041974 1143.4663972744154 -1174.3049914781936 0 0 0
4177 279 7 2 -693.5819685405773 1162.5492069156262 -1147.1591111287898 0 0 0
5634 376 9 0 -742.1877645210823 1164.245123827647 -1131.8988693002536 0 0 0
4181 279 11 1 -645.3125608128593 1176.0440097208243 -1126.961897567556 0 0 0
4898 327 8 0 -904.063123957862 1222.1870451436755 -1183.54105996562 0 0 0
2183 146 8 0 -950.0016333048612 1242.6244074718945 -1153.5950140949699 0 0 0
5373 359 3 -1.5 -681.2276242584499 1203.2488408848606 -1134.9680559409228 0 0 0
4235 283 5 0 -2207.1255058131815 1318.4223275342817 -1174.5433639356404 0 0 0
4362 291 12 0 -2139.51003107811 1295.651427546315 -1174.0824563410172 0 0 0
4242 283 12 0 -2121.343447547867 1333.641232675725 -1139.7137222233343 0 0 0
4353 291 3 -1.5 -2167.8009325033536 1305.47490170163 -1134.8392060068918 0 0 0
4240 283 10 1 -2084.64989460562 1291.5668002192783 -1172.747826976544 0 0 0
4265 285 5 0 -669.7822488406478 1316.0681553973827 -1142.8303964345087 0 0 0
5384 359 14 -1.5 -329.49420268097936 1295.6954969919452 -1156.4412972315256 0 0 0
4274 285 14 -1.5 -298.41948279247674 1314.913651430815 -1125.042651490538 0 0 0
4243 283 13 -0.5 -2150.811781947946 1414.4712309942133 -1131.7572605778264 0 0 0
4268 285 8 0 -702.44062403969 1413.3608962136611 -1140.9056324198532 0 0 0
4261 285 1 0 -671.5909513973177 1466.181041329854 -1140.410373991517 0 0 0
3618 242 3 -1.5 -266.2829640844651 -1263.2312434574599 -1117.9558145461983 0 0 0
3628 242 13 -0.5 -253.59878361231742 -1253.9177261818597 -1077.9161851158099 0 0 0
2667 178 12 0 -228.27277135033165 -808.7109276863882 -1075.3541801124188 0 0 0
2665 178 10 1 -174.6669208401204 -806.3288881943164 -1104.0171945791506 0 0 0
2662 178 7 2 -116.51299329580083 -809.2006514520267 -1124.373119408628 0 0 0
2660 178 5 0 -291.9639036105814 -737.2512134473388 -1120.0592739692145 0 0 0
928 62 13 -0.5 -916.0617973462562 -560.5158803311682 -1091.856508433122 0 0 0
255 17 15 0 -945.7062983218614 -528.4255229091233 -1094.756089917387 0 0 0
254 17 14 -1.5 -891.080543568489 -547.559297161685 -1120.2664745307216 0 0 0
5532 369 12 0 -2646.5681547130994 -516.9947365361443 -1092.7539214502485 0 0 0
5530 369 10 1 -2589.6056288298837 -511.12812020881233 -1062.8035927868204 0 0 0
1610 108 5 0 -1446.6426078285776 -509.41353901606374 -1089.0819157519795 0 0 0
918 62 3 -1.5 -896.1538846791357 -523.0469429163851 -1083.8102588308664 0 0 0
927 62 12 0 -863.9622051801754 -499.5141471083339 -1106.3172941921612 0 0 0
925 62 10 1 -811.1888844953073 -465.6967520577197 -1107.561642847953 0 0 0
1801 121 1 0 -2662.7258694352936 -437.1451007048399 -1121.8889446491942 0 0 0
922 62 7 2 -763.3799704870884 -425.6883240310822 -1104.3090770949807 0 0 0
3388 226 13 -0.5 -773.5841782289829 -390.9408411393148 -1082.6696744145904 0 0 0
926 62 11 1 -718.0068942129468 -398.84672322725334 -1093.5407749318344 0 0 0
924 62 9 0 -670.5761389597789 -354.03312379860836 -1075.1764127513097 0 0 0
930 62 15 0 -593.4853673258008 -342.2081426255975 -1052.900755857997 0 0 0
5443 363 13 -0.5 -607.6073010217118 -273.62781228648714 -1066.5220227665225 0 0 0
3386 226 11 1 -582.2017845857066 -260.04942720309714 -1054.5049983022736 0 0 0
3384 226 9 0 -525.2663491922373 -229.61721530168384 -1064.2509759721452 0 0 0
3381 226 6 -0.5 -486.3470194234342 -188.83729168256775 -1073.480749815429 0 0 0
3389 226 14 -1.5 -452.7475326532228 -163.66621952450015 -1060.2828771779805 0 0 0
659 44 14 -1.5 -96.11473965759241 -208.17972493395553 -1087.383286009961 0 0 0
651 44 6 -0.5 -126.62262184076265 -190.63423562950518 -1115.6196791706088 0 0 0
649 44 4 0 -4.819519547592085 -177.31757460974347 -1073.6487987981948 0 0 0
647 44 2 0 -56.426554678546474 -170.58482816848536 -1111.401005142743 0 0 0
3125 209 5 0 -1176.177262484145 -134.07391533589436 -1062.9423663005987 0 0 0
5064 338 9 0 -777.745587069956 69.5940785472356 -1069.054850190909 0 0 0
5069 338 14 -1.5 -693.8334784340562 50.0278352235021 -1100.7049492194365 0 0 0
5061 338 6 -0.5 -730.696494504215 72.40226963530515 -1090.6287625606506 0 0 0
1291 87 1 0 -1097.615252780368 343.2336922582517 -1077.5581174392723 0 0 0
1298 87 8 0 -1066.674781452253 390.4026060060551 -1055.4900264477697 0 0 0
5161 345 1 0 -2057.125791260725 523.1519332215256 -1120.5555686006046 0 0 0
4688 313 8 0 -2763.0544491434134 599.3784252325624 -1112.6794924587452 0 0 0
5168 345 8 0 -2090.234484891056 561.2609488913719 -1079.8201469246794 0 0 0
4685 313 5 0 -2800.431503263154 633.8549090390379 -1085.7144837849135 0 0 0
5165 345 5 0 -2083.3822238866906 643.2334530507901 -1082.9136057539342 0 0 0
4683 313 3 -1.5 -2883.2330411342473 733.0195420036297 -1096.3430485018894 0 0 0
4692 313 12 0 -2850.8595736655075 733.5025780638716 -1057.438444156498 0 0 0
5173 345 13 -0.5 -2188.168403145419 724.3479103201628 -1085.4291358458813 0 0 0
5163 345 3 -1.5 -2148.8281429629565 741.9381531934782 -1085.4705513948 0 0 0
5172 345 12 0 -2109.8859499794867 730.1445092773446 -1057.6281138018537 0 0 0
1425 95 15 0 -1618.3361252054165 791.447299990959 -1109.8183398804229 0 0 0
1419 95 9 0 -1591.1442007967503 750.8964678543776 -1113.6222135590083 0 0 0
1416 95 6 -0.5 -1565.7474175522793 799.2173527762893 -1102.5421279810494 0 0 0
1424 95 14 -1.5 -1528.8247843975491 824.0161847159617 -1105.154576384175 0 0 0
4073 272 8 0 -2666.127230457019 835.9936268559183 -1078.2509948685488 0 0 0
5633 376 8 0 -1023.8492347422774 1012.5540733071521 -1053.3940582628868 0 0 0
5630 376 5 0 -974.3212678143846 1022.6398910093186 -1117.014582065425 0 0 0
4069 272 4 0 -2378.9707637405727 1103.2921478898907 -1077.880725517276 0 0 0
4095 273 15 0 -820.1343529882083 1074.0608415121178 -1093.316355341781 0 0 0
4082 273 2 0 -766.2578918666293 1132.367258948991 -1092.6592796525886 0 0 0
4900 327 10 1 -715.661258562352 1129.333383940628 -1118.274452674745 0 0 0
5383 359 13 -0.5 -699.0598804046209 1173.1227579529154 -1109.8938847846155 0 0 0
5631 376 6 -0.5 -696.5372671930342 1170.5505013593804 -1104.1288246472225 0 0 0
4084 273 4 0 -716.6868907783355 1144.41063986732 -1075.9036343783148 0 0 0
4897 327 7 2 -668.5851223506584 1156.6969453333875 -1089.7042307638644 0 0 0
4273 285 13 -0.5 -642.3003189535006 1161.0447056651612 -1063.091330214736 0 0 0
4901 327 11 1 -625.6492516197119 1184.7219027163258 -1073.4380609416032 0 0 0
4263 285 3 -1.5 -635.628745581796 1198.0096462282768 -1083.6675150542405 0 0 0
5639 376 14 -1.5 -661.8399628508647 1195.47966866635 -1091.3541141000867 0 0 0
4179 279 9 0 -588.3485973242705 1197.6895968094227 -1099.897055089877 0 0 0
4185 279 15 0 -552.9840733573217 1169.229985183836 -1060.86988371681 0 0 0
5372 359 2 0 -237.82185843692028 1189.4935784092017 -1065.76391488603 0 0 0
2180 146 5 0 -991.2034906980356 1235.9871887999748 -1064.9802165135827 0 0 0
5640 376 15 0 -737.800953784431 1212.7693545247932 -1059.7719601063286 0 0 0
5382 359 12 0 -640.2193876347288 1235.0191688346558 -1123.3174451003556 0 0 0
4272 285 12 0 -607.2346859751616 1237.7683775397763 -1074.3247453759634 0 0 0
4176 279 6 -0.5 -539.0498350975489 1217.3332569948484 -1091.7375839788103 0 0 0
5380 359 10 1 -574.1942730183637 1240.4145584271541 -1109.2696927040538 0 0 0
4270 285 10 1 -548.5222056756601 1258.144555862454 -1065.8081303032707 0 0 0
4899 327 9 0 -568.6071980306847 1215.7034376405688 -1059.4494120124177 0 0 0
4904 327 14 -1.5 -477.67887513187105 1245.211713739611 -1081.9926488347548 0 0 0
5377 359 7 2 -515.245467132756 1253.294227436764 -1096.734539010893 0 0 0
5381 359 11 1 -462.21384320762 1263.6690285316224 -1093.2986564108703 0 0 0
4184 279 14 -1.5 -507.65875288064103 1231.5093003568152 -1063.392812241133 0 0 0
4896 327 6 -0.5 -512.5255549022398 1228.094101833994 -1060.3171772353605 0 0 0
5379 359 9 0 -398.6325560124937 1274.18721161024 -1098.1880729292318 0 0 0
5385 359 15 0 -330.4165125138705 1230.621983920293 -1067.1944949705914 0 0 0
4363 291 13 -0.5 -2157.4824529432935 1334.787976856047 -1105.3272318025313 0 0 0
4267 285 7 2 -490.2037999795562 1278.377949069391 -1066.7879350974788 0 0 0