LAMMPS data file via write_data, version 27 Jun 2024, timestep = 18240000, units = real

5730 atoms
15 atom types
5574 bonds
16 bond types
5730 angles
15 angle types

-3000 3000 xlo xhi
-1500 1500 ylo yhi
-1500 1500 zlo zhi

Masses

1 241.19
2 73.54000000000001
3 330.71
4 235.16
5 68.06999999999999
6 353.53
7 223.38
8 41.1
9 216.91
10 155.15
11 147.32
12 264.65
13 300.8
14 326.05
15 85.20999999999999

Pair Coeffs # lj/cut/coul/debye/gpu

1 0.71637 40.7505
2 0.665709 48.1397
3 1.15033 39.2216
4 0.726774 43.8077
5 0.514724 53.3428
6 1.17127 41.7847
7 1.2256 38.5601
8 0.675431 54.5696
9 1.26117 43.78
10 0.939007 42.5209
11 0.960667 41.1825
12 1.30988 48.0761
13 1.36645 37.7114
14 1.35529 39.2179
15 0.592003 47.2602

Bond Coeffs # harmonic

1 0.003 59.228
2 0.008 56.48
3 0.001 69.324
4 3.207 42.88
5 0.11 49.807
6 0.002 74.968
7 0.001 91.635
8 0.145 54.383
9 2.709 44.406
10 1.71 61.679
11 1.625 54.051
12 0.207 66.185
13 0.002 64.76
14 0.079 63.886
15 0.2 40
16 0.2 40

Angle Coeffs # harmonic

1 11.427 158.273
2 50.464 132.042
3 8.207 156.514
4 92.705 149.394
5 100 174.44
6 3.15 145.53
7 48.938 159.031
8 17.401 129.945
9 15.735 56.441
10 60 172.254
11 60.285 168.396
12 11.83 99.091
13 150 107.995
14 27.746 149.925
15 7.483 160.775

Atoms # full

2407 161 7 2 -2182.8232340570694 -1466.1716169611193 -1449.5635599160516 0 0 0
2559 171 9 0 -1208.0061443920076 -1338.698956684373 -1457.7403056449673 0 0 1
2556 171 6 -0.5 -1170.2752917078553 -1322.4498961877619 -1490.3303436032554 0 0 1
3780 252 15 0 -1699.348647289042 -1224.291105426417 -1490.4948692026776 0 0 0
3776 252 11 1 -1798.0393501986312 -1166.9285959067918 -1447.3795118865717 0 0 0
3774 252 9 0 -1733.1569886857094 -1163.781316269478 -1466.9279909113895 0 0 0
3771 252 6 -0.5 -1684.8639397065197 -1147.3477927938518 -1485.1372248739424 0 0 0
1084 73 4 0 -2383.031498259828 -1052.346389379813 -1483.0613933972838 0 0 1
3779 252 14 -1.5 -1648.6078955729392 -1121.7341598790665 -1483.6825228888708 0 0 0
2930 196 5 0 -2537.9122084124374 -335.635035877496 -1465.3447992027254 0 0 0
2586 173 6 -0.5 -1639.6967924300075 -325.1212989986742 -1444.2229382502067 0 0 1
2594 173 14 -1.5 -1614.0066685795232 -360.09423769690926 -1441.8742065670965 0 0 1
975 65 15 0 -2513.7990306586275 -260.71099163963504 -1436.2462713253487 0 0 0
2589 173 9 0 -1656.907834708732 -281.500619623258 -1475.814588682076 0 0 1
2595 173 15 0 -1608.5322084669353 -293.16533759236023 -1435.0789344442499 0 0 1
653 44 8 0 -157.42042979352857 -106.737071063537 -1476.3103964342956 0 0 0
1055 71 5 0 -668.799532708267 305.53448879340954 -1428.8590355711528 0 0 0
1774 119 4 0 -1401.5798545378132 436.6286421826933 -1488.2679373938463 0 0 1
4927 329 7 2 -1843.5485555683977 595.0862740801111 -1473.3023663570727 0 0 0
1411 95 1 0 -1804.4164184232843 562.8387151905011 -1466.8711384398275 0 0 0
1418 95 8 0 -1737.8688290069754 582.5088990267421 -1458.8325256151195 0 0 0
4931 329 11 1 -1821.7501853895237 603.5543595194048 -1425.7479062904079 0 0 0
4480 299 10 1 -1995.0355043803233 963.8249119020029 -1482.2894118713998 0 0 0
4354 291 4 0 -2007.4178855906 1010.701319769201 -1465.7724340522789 0 0 0
4477 299 7 2 -1975.1677085274794 996.0466253552206 -1434.3980341909685 0 0 0
2411 161 11 1 -2174.6012919071522 -1450.4240244763164 -1399.2193089399696 0 0 0
2555 171 5 0 -1472.0120465458554 -1285.453017678023 -1420.6032064669853 0 0 1
2560 171 10 1 -1362.4332149150443 -1311.9409952262477 -1366.7739762643391 0 0 1
2562 171 12 0 -1420.1989349894227 -1288.6697239648095 -1350.7208290175847 0 0 1
2557 171 7 2 -1308.595573691834 -1328.190461915629 -1392.6342631054124 0 0 1
2561 171 11 1 -1263.2631013937532 -1339.9508755457161 -1419.1597825347544 0 0 1
3778 252 13 -0.5 -2009.7445751802293 -1262.378259876032 -1383.7401093137662 0 0 0
3768 252 3 -1.5 -1988.2581003812425 -1234.7006263225583 -1360.1206039881338 0 0 0
3777 252 12 0 -1938.3433988567533 -1230.874995121301 -1357.6406856025117 0 0 0
3775 252 10 1 -1887.7017171999116 -1212.658744922983 -1390.0530904344769 0 0 0
3772 252 7 2 -1842.0228032590887 -1184.8549868598475 -1421.5184834465056 0 0 0
1814 121 14 -1.5 -2553.8707127826574 -715.2720667359107 -1385.0242403065008 0 0 0
1806 121 6 -0.5 -2565.7245818145293 -673.5864865687112 -1393.6654800547446 0 0 0
1809 121 9 0 -2564.747265676178 -620.2198202313443 -1375.5991651312827 0 0 0
1815 121 15 0 -2606.759980790102 -669.6543276639768 -1363.71409677264 0 0 0
1811 121 11 1 -2573.8552659079446 -553.571798404447 -1369.3504695501665 0 0 0
1609 108 4 0 -1131.5131763442726 -592.7665254271552 -1395.5607684857523 0 0 0
1807 121 7 2 -2570.360126128129 -501.4431179101341 -1356.159744444062 0 0 0
241 17 1 0 -1323.1017544655915 -496.7254873678691 -1384.6875250541568 0 0 0
2928 196 3 -1.5 -2571.1509501729024 -343.4598768186014 -1369.642055092482 0 0 0
971 65 11 1 -2568.201628662324 -325.29005367162927 -1362.6500511526463 0 0 0
2937 196 12 0 -2521.076085905187 -337.9621740352938 -1379.758554526683 0 0 0
2935 196 10 1 -2471.501278180202 -303.55278047699 -1368.7604559060017 0 0 0
969 65 9 0 -2518.7448359396444 -284.3383637673166 -1384.0512493915585 0 0 0
974 65 14 -1.5 -2432.8990470013546 -237.6531503254522 -1364.6639680319865 0 0 0
966 65 6 -0.5 -2468.542902109021 -254.78293569454593 -1384.4345828550943 0 0 0
2932 196 7 2 -2418.625062201679 -273.37345825477956 -1354.431166688775 0 0 0
2582 173 2 0 -1559.9924901499912 -263.41292952775945 -1389.8317908940735 0 0 1
2940 196 15 0 -2240.734132608044 -203.54309658359205 -1356.123074573853 0 0 0
2584 173 4 0 -1518.6060494700243 -224.22569657835024 -1362.5807150225814 0 0 1
2927 196 2 0 -2144.9826998729163 -144.74706966404753 -1361.1876633547072 0 0 0
2929 196 4 0 -2103.805362490976 -86.55892743470486 -1360.929102077234 0 0 0
650 44 5 0 -158.80965017023848 -126.65735933353925 -1385.8337904288448 0 0 0
1063 71 13 -0.5 -760.0486159688147 367.61676096053225 -1365.8162182180822 0 0 0
1062 71 12 0 -674.8003613196403 367.7591474123967 -1358.8547051720202 0 0 0
1053 71 3 -1.5 -721.1557608232141 383.5544378437858 -1364.83159874578 0 0 0
1423 95 13 -0.5 -1534.4808414161525 481.1963351487344 -1355.315606395059 0 0 0
1415 95 5 0 -1659.264121029379 561.8128162263688 -1402.978078160806 0 0 0
4929 329 9 0 -1804.384085988004 607.1479364002713 -1362.965456179127 0 0 0
4352 291 2 0 -2028.4922563249795 1041.65251202433 -1419.865555672041 0 0 0
4481 299 11 1 -1961.3663075556162 1025.555798094341 -1390.4805512454661 0 0 0
4365 291 15 0 -2019.032755189287 1119.982725839415 -1369.5176046995036 0 0 0
4364 291 14 -1.5 -1970.4292990937633 1072.9543601754358 -1372.5939624486605 0 0 0
4356 291 6 -0.5 -1966.9803557245136 1115.1622707384906 -1357.3335151996278 0 0 0
4234 283 4 0 -1901.507848065396 1071.2968040942326 -1392.9748625533127 0 0 0
4232 283 2 0 -1921.0340796979851 1113.934967643575 -1366.8014721251632 0 0 0
2409 161 9 0 -2173.5085455215094 -1436.5170156490103 -1334.8409542295649 0 0 0
2406 161 6 -0.5 -2162.7415661247232 -1444.4236885580335 -1279.6915084775285 0 0 0
2415 161 15 0 -2147.301375948174 -1389.3608608320656 -1290.6016139738952 0 0 0
2553 171 3 -1.5 -1453.7842602502508 -1276.0996166658604 -1313.9592334320348 0 0 1
3770 252 5 0 -1932.9593932979146 -1207.3400508512364 -1276.2183149495384 0 0 0
2563 171 13 -0.5 -1480.112170383863 -1243.389247068989 -1304.8932782424865 0 0 1
1804 121 4 0 -2685.733811362691 -736.2659097682366 -1301.9480169081455 0 0 0
1802 121 2 0 -2634.7412545814354 -702.2388369128106 -1323.658434501066 0 0 0
1607 108 2 0 -1116.5438157418976 -580.8353763909444 -1331.0736374140506 0 0 0
248 17 8 0 -1315.2195904686603 -504.32306833828926 -1327.7130932408943 0 0 0
245 17 5 0 -1259.039906586967 -518.3024933753175 -1286.2159814726272 0 0 0
973 65 13 -0.5 -2794.192697395262 -411.5626083862515 -1346.8272452691797 0 0 0
963 65 3 -1.5 -2761.0797829620055 -417.30343538173764 -1321.1757724987503 0 0 0
972 65 12 0 -2723.7694505370123 -386.7895652463323 -1314.972745641822 0 0 0
1810 121 10 1 -2566.623341583728 -440.2186025444964 -1346.218442254405 0 0 0
1812 121 12 0 -2567.5179488762524 -379.3545664875036 -1339.0045209847367 0 0 0
916 62 1 0 -1017.7336798988975 -409.43967012454874 -1315.5613697674266 0 0 0
923 62 8 0 -946.7221161305096 -420.25315742731203 -1304.776350776978 0 0 0
965 65 5 0 -2774.446018587283 -324.3246332362842 -1337.4340360445947 0 0 0
970 65 10 1 -2672.2964795857242 -373.4456452127321 -1337.5770887724566 0 0 0
967 65 7 2 -2614.9819079996128 -350.7787831121167 -1349.8252062177196 0 0 0
2938 196 13 -0.5 -2585.1177460560843 -337.5137237236184 -1330.0003833532555 0 0 0
1813 121 13 -0.5 -2550.1291604576977 -300.4736323348094 -1321.2626891866646 0 0 0
1803 121 3 -1.5 -2538.3458211990505 -339.4409762504407 -1333.8148477885402 0 0 0
968 65 8 0 -2814.364804859717 -281.4305256003169 -1336.1072403266846 0 0 0
961 65 1 0 -2839.3409545274812 -234.21675719895438 -1300.8687314555543 0 0 0
2936 196 11 1 -2371.6489357912947 -247.65904439582332 -1347.1258201697667 0 0 0
2934 196 9 0 -2317.6750356369153 -211.7330385054827 -1325.44923225439 0 0 0
2931 196 6 -0.5 -2274.7886359251697 -201.53609719752245 -1295.4957178518746 0 0 0
2939 196 14 -1.5 -2250.0624714097667 -169.09537296300695 -1277.657490959577 0 0 0
658 44 13 -0.5 -318.3220207249088 -175.06917438034225 -1323.8405470891869 0 0 0
648 44 3 -1.5 -280.0997763215355 -155.11881676281467 -1321.115916299812 0 0 0
657 44 12 0 -242.59414343116035 -167.4929869935105 -1294.5428699334923 0 0 0
1060 71 10 1 -615.057637270464 395.3009945421761 -1349.710215421902 0 0 0
1057 71 7 2 -557.412482893206 410.032694422484 -1335.1474279895565 0 0 0
1723 115 13 -0.5 -539.4986240464633 400.7928083415916 -1300.9276199973074 0 0 0
1061 71 11 1 -508.09574302946754 428.80390285800087 -1322.9370971682074 0 0 0
1059 71 9 0 -447.4708606660699 439.79857652978177 -1297.202059398246 0 0 0
1413 95 3 -1.5 -1568.018339533862 499.40064655768987 -1335.3175744336252 0 0 0
1422 95 12 0 -1583.5993595102295 544.3261649234466 -1323.2480067114484 0 0 0
1420 95 10 1 -1572.152361333503 598.1345394166779 -1288.235961153727 0 0 0
1714 115 4 0 -152.09459251925864 595.8993260829375 -1303.3727813004778 0 0 0
4935 329 15 0 -1845.9869328593097 611.3436772642872 -1290.803702997715 0 0 0
4934 329 14 -1.5 -1789.8100674492314 669.3097072631573 -1290.45596052129 0 0 0
4926 329 6 -0.5 -1789.8447789128913 632.8671848753696 -1317.0267382921127 0 0 0
1414 95 4 0 -1661.0474295077556 929.587025765728 -1282.5806152998316 0 0 0
4236 283 6 -0.5 -2015.4490010630204 1107.8334849468079 -1308.3719913600805 0 0 0
4244 283 14 -1.5 -1997.9540453290172 1075.4016666125692 -1333.7845337465735 0 0 0
4479 299 9 0 -1935.8776750728416 1069.2671584933298 -1346.1039760362437 0 0 0
4485 299 15 0 -1932.9920290279188 1055.8700143528022 -1292.1625984880377 0 0 0
4476 299 6 -0.5 -1906.128146263433 1092.810659856011 -1307.6902749295725 0 0 0
4484 299 14 -1.5 -1866.0530339057489 1102.7214480617847 -1291.7419161280995 0 0 0
4361 291 11 1 -2020.3141050895208 1191.3449017969126 -1282.7467496977151 0 0 0
4245 283 15 0 -1952.6369091630525 1134.1229895367374 -1306.188557454375 0 0 0
4359 291 9 0 -1992.1534586353341 1155.4679115363028 -1328.607550648947 0 0 0
4171 279 1 0 -857.8350550159163 1337.7282772175986 -1276.7617237897673 0 0 0
4351 291 1 0 -2155.9801034816965 -1493.4297711450408 -1233.1424114667777 0 1 0
2414 161 14 -1.5 -2171.5549508934237 -1444.9872418537702 -1236.654050776516 0 0 0
3624 242 9 0 -160.4676981058726 -1460.8729646464783 -1205.9529315174864 0 0 0
3621 242 6 -0.5 -145.5865058163899 -1486.5020345521782 -1253.1132213061032 0 0 0
3630 242 15 0 -97.6783075310162 -1444.219355572556 -1228.3301317252265 0 0 0
3617 242 2 0 -16.718559592292124 -1440.5943435390905 -1240.5486562780918 0 0 0
2402 161 2 0 -2145.9293773721474 -1355.6897285218006 -1203.2562271498625 0 0 0
3773 252 8 0 -1941.6105425534067 -1205.4642549406824 -1208.9539891469803 0 0 0
1618 108 13 -0.5 -1499.819012067564 -639.0555261321973 -1201.3291845512838 0 0 0
1608 108 3 -1.5 -1479.0225754851074 -610.3740178178161 -1225.9033527646448 0 0 0
253 17 13 -0.5 -1284.900232115936 -630.6499801008542 -1246.5849664271352 0 0 0
1612 108 7 2 -1309.736075008137 -607.6615696101217 -1227.6469505433502 0 0 0
1616 108 11 1 -1254.8842293837965 -606.9036221123438 -1227.838348421707 0 0 0
1611 108 6 -0.5 -1139.0779000473126 -605.4542528199239 -1221.679478594722 0 0 0
1617 108 12 0 -1431.4416255649517 -589.8194857967098 -1224.1638027800304 0 0 0
1615 108 10 1 -1370.7081616292587 -599.8321959660129 -1223.7953828786156 0 0 0
243 17 3 -1.5 -1278.2867622945791 -590.613289273695 -1232.3020021315142 0 0 0
252 17 12 0 -1233.9984699765528 -567.1334419061463 -1238.6947570926209 0 0 0
1620 108 15 0 -1144.47495563351 -580.8911933394529 -1270.1744816281712 0 0 0
1614 108 9 0 -1191.6964254282775 -593.6659348177919 -1223.0372468566486 0 0 0
250 17 10 1 -1167.158563652542 -558.828407995671 -1231.8261189938607 0 0 0
1619 108 14 -1.5 -1098.6127351122475 -587.2125729218825 -1224.9946733949043 0 0 0
247 17 7 2 -1107.964390326109 -549.8590876957281 -1215.744847229175 0 0 0
251 17 11 1 -1055.3528913929679 -544.1121617622184 -1206.1561003110894 0 0 0
1610 108 5 0 -1446.008714425677 -490.8733138520345 -1216.3374641423227 0 0 0
920 62 5 0 -890.049708210987 -445.98989008927487 -1228.431079867138 0 0 0
1808 121 8 0 -2724.0793476327294 -334.92161687198444 -1205.5385110408934 0 0 0
1805 121 5 0 -2643.4245001319878 -363.0273908677791 -1243.068548548326 0 0 0
655 44 10 1 -205.39315734611804 -171.3695848343586 -1244.6635921966026 0 0 0
1713 115 3 -1.5 -537.659216647383 429.07718598132993 -1268.8646331658388 0 0 0
1722 115 12 0 -503.76214673510646 431.68714077115743 -1231.041692329169 0 0 0
1056 71 6 -0.5 -409.35497417813923 447.4379196735526 -1261.2215361332508 0 0 0
1720 115 10 1 -451.01158192139457 456.8026134178737 -1216.294138472068 0 0 0
1065 71 15 0 -439.8542682939849 498.80643164053646 -1260.7702880805532 0 0 0
1717 115 7 2 -392.19822049134984 477.28004204809326 -1213.729295523429 0 0 0
1064 71 14 -1.5 -374.393492472132 472.84543034333245 -1249.6807547218134 0 0 0
1721 115 11 1 -342.55729546761654 498.5753168667851 -1211.5543586243894 0 0 0
1712 115 2 0 -184.56326771819954 576.6913180391903 -1260.6862609679238 0 0 0
1725 115 15 0 -209.06408438316126 555.2354775694869 -1242.5365546560733 0 0 0
4924 329 4 0 -1973.2370247443284 608.8135351389549 -1220.901564964206 0 0 0
4922 329 2 0 -1918.179556463464 615.2203545449531 -1239.1501283903797 0 0 0
1417 95 7 2 -1565.4430049095658 651.560295818179 -1258.5507822179004 0 0 0
1421 95 11 1 -1566.2084895047751 702.6721183497957 -1244.0747572362368 0 0 0
4081 273 1 0 -1012.5900054026903 693.8975529692249 -1202.7496871348364 0 0 0
1425 95 15 0 -1624.6492843993624 819.7079296452048 -1253.97062960456 0 0 0
1416 95 6 -0.5 -1574.0741625773157 819.60109897916 -1209.761056777479 0 0 0
1419 95 9 0 -1559.9434139717423 767.289916432919 -1223.8469480195156 0 0 0
4653 311 3 -1.5 -1260.0075639292659 819.8483555929288 -1204.5633760104022 0 0 0
4066 272 1 0 -2559.6336977600727 880.5234299030714 -1214.8792334782547 0 0 0
1412 95 2 0 -1671.0236595700765 881.762329714285 -1273.8170916143101 0 0 0
1424 95 14 -1.5 -1586.7138394000262 860.3285093049564 -1221.426768271967 0 0 0
4663 311 13 -0.5 -1301.5625395738678 829.3901495185567 -1200.152876589931 0 0 0
4472 299 2 0 -1894.5569957350053 1046.4303891923803 -1239.5584318834917 0 0 0
4474 299 4 0 -1858.179534354769 1007.2995923079353 -1216.9492707232546 0 0 0
4665 311 15 0 -967.2697132596788 994.9941999667756 -1213.6671597397406 0 0 0
4652 311 2 0 -916.2473027991133 1032.4996244446845 -1222.8862683414684 0 0 0
4654 311 4 0 -885.9401023921286 1075.7773369724769 -1214.033254841153 0 0 0
4239 283 9 0 -2012.1638307570734 1145.8028979464823 -1270.0728672291825 0 0 0
4182 279 12 0 -766.2506929114513 1146.3065545974061 -1202.1931819857036 0 0 0
4357 291 7 2 -2048.0964775617554 1229.117236492917 -1255.7248786112268 0 0 0
4237 283 7 2 -2038.3195180719354 1247.1548402635017 -1214.4822834859804 0 0 0
4360 291 10 1 -2084.1492918615177 1266.5652398896193 -1222.3264131369358 0 0 0
4241 283 11 1 -2023.0170452760772 1200.0013234149196 -1235.5113905090068 0 0 0
5374 359 4 0 -262.4236850088728 1243.7604245095858 -1240.0529888750493 0 0 0
4178 279 8 0 -849.1442684787595 1288.8061776565032 -1222.3280082715457 0 0 0
4898 327 8 0 -849.7426014074363 1338.1607326661713 -1202.2881022980803 0 0 0
5372 359 2 0 -277.9099798719027 1286.2549697977888 -1219.7951804429908 0 0 0
4891 327 1 0 -876.3728457067143 1402.0195509355715 -1222.330718550769 0 0 0
4261 285 1 0 -722.5697512713582 1363.6227866878671 -1257.3017932874673 0 0 0
4268 285 8 0 -687.278178153292 1357.277623827313 -1209.7735427620662 0 0 0
4358 291 8 0 -2093.384551722137 1456.3500720666718 -1228.983973778795 0 0 0
3629 242 14 -1.5 -122.68082727887952 1481.775676410311 -1273.7646817907503 0 -1 0
2404 161 4 0 -2138.1021751584494 -1351.2589709923482 -1159.1736523216282 0 0 0
3626 242 11 1 -193.9089744720388 -1420.7197867317732 -1167.888267301188 0 0 0
3622 242 7 2 -219.07941780239454 -1380.541457574779 -1142.9333253018676 0 0 0
3623 242 8 0 -346.4058192252542 -1210.6073393099148 -1191.0822070071424 0 0 0
3620 242 5 0 -304.7857331854263 -1231.8401960091235 -1152.9948612883568 0 0 0
3766 252 1 0 -1934.173630364731 -1161.937263963815 -1175.0133394958912 0 0 0
3616 242 1 0 -381.98191881579936 -1155.6270096675273 -1189.055429301811 0 0 0
2662 178 7 2 -53.372918269982875 -798.185919052372 -1140.6674014881341 0 0 0
2666 178 11 1 -6.935917402639021 -816.1852611142356 -1161.9357817341638 0 0 0
2660 178 5 0 -202.34487438859549 -699.3970124593733 -1128.0040233799748 0 0 0
1313 88 8 0 -70.62063003736122 -731.5269559426475 -1156.7391381167292 0 0 0
1306 88 1 0 -19.900019913867016 -734.6862829526166 -1191.962389808998 0 0 0
2663 178 8 0 -243.33985330963782 -659.4596916881655 -1130.861114946209 0 0 0
1613 108 8 0 -1485.6721763261594 -457.8037927277126 -1184.0018654475034 0 0 0
249 17 9 0 -997.0389435668162 -514.6863434166902 -1192.751426455584 0 0 0
255 17 15 0 -968.6352806139881 -518.1603493362718 -1128.422309941966 0 0 0
246 17 6 -0.5 -954.172580125362 -497.2247649523964 -1166.0922236100598 0 0 0
254 17 14 -1.5 -910.2563992936858 -489.1060760049895 -1163.0674738324742 0 0 0
918 62 3 -1.5 -893.2513098176667 -516.8226785061436 -1136.0981041444443 0 0 0
927 62 12 0 -863.8014141088311 -474.4980817913978 -1139.4444115693989 0 0 0
1801 121 1 0 -2781.5567222449868 -376.13443389759783 -1144.706137657111 0 0 0
5533 369 13 -0.5 -2718.677651644664 -420.73686857223555 -1147.10771174385 0 0 0
5523 369 3 -1.5 -2684.491488095877 -446.15357486107746 -1144.880579701995 0 0 0
1606 108 1 0 -1536.1031897983808 -429.71703521351816 -1172.4927295621742 0 0 0
3121 209 1 0 -1245.478691275652 -237.35316555972224 -1191.9200769992833 0 0 0
917 62 2 0 -573.5867826647359 -278.35754092182657 -1137.4132379628918 0 0 0
919 62 4 0 -550.8798322641245 -245.90237381437774 -1174.6473481949308 0 0 0
3128 209 8 0 -1268.1571498607655 -200.95261830795542 -1170.609262253387 0 0 0
652 44 7 2 -178.14326189319186 -182.82267567626295 -1190.4548310158636 0 0 0
656 44 11 1 -151.17933236766015 -185.17743195826222 -1144.0326506543595 0 0 0
5069 338 14 -1.5 -751.099086089802 24.410467636257874 -1136.878830661353 0 0 0
5059 338 4 0 -742.3737281804463 162.69708870551477 -1154.1729620772153 0 0 0
1715 115 5 0 -552.3810359794753 431.5767039932679 -1160.1385239265235 0 0 0
1719 115 9 0 -283.9100244974398 524.9072771631435 -1199.3229351131126 0 0 0
5161 345 1 0 -2105.49028305938 539.6634399106179 -1165.6600105183722 0 0 0
5168 345 8 0 -2138.466518450963 567.614543817114 -1155.1876728701009 0 0 0
1052 71 2 0 -444.8273148607821 538.5815079240225 -1198.2967395496455 0 0 0
1054 71 4 0 -441.7135792156469 558.9895567808373 -1148.9541327763513 0 0 0
1716 115 6 -0.5 -237.40622634375265 541.0100778949862 -1176.7421433531892 0 0 0
1724 115 14 -1.5 -215.2815607178036 572.5809291919434 -1154.6202542473761 0 0 0
4088 273 8 0 -1003.5957354386146 738.3786090342795 -1163.6328918252718 0 0 0
5173 345 13 -0.5 -2191.0881424695253 804.9582137606837 -1144.7826146681105 0 0 0
5163 345 3 -1.5 -2172.0458286857684 768.4544940822304 -1135.0887956039949 0 0 0
4085 273 5 0 -1005.1795178135933 812.7692006443186 -1164.026125829408 0 0 0
4073 272 8 0 -2532.043303976461 887.684551755758 -1171.2277965909147 0 0 0
4662 311 12 0 -1217.8551522873445 836.661323972761 -1185.0190311196795 0 0 0
4660 311 10 1 -1166.8118900813438 879.3398685694485 -1182.2958461361698 0 0 0
4093 273 13 -0.5 -1089.811385741602 897.2288736376445 -1197.4111450106213 0 0 0
4657 311 7 2 -1120.6322471259284 919.8157889619437 -1188.5209212204536 0 0 0
4661 311 11 1 -1078.861247387288 954.8873588144448 -1190.0378897840458 0 0 0
4083 273 3 -1.5 -1085.3745486911007 921.3305097754918 -1162.1264079725804 0 0 0
4092 273 12 0 -1047.9332616172778 937.494132650319 -1137.4548553269487 0 0 0
4090 273 10 1 -997.8404829351932 972.794661947748 -1135.8887673790005 0 0 0
4659 311 9 0 -1026.8208652731455 989.7048290935779 -1174.237361478923 0 0 0
4656 311 6 -0.5 -975.9193304840634 1004.4218943222921 -1164.7409798886463 0 0 0
5628 376 3 -1.5 -933.641199138705 1027.6113764976699 -1182.5567456333943 0 0 0
4664 311 14 -1.5 -933.4384847735482 1001.4831067052681 -1176.5238717899012 0 0 0
4087 273 7 2 -943.1520740903466 1001.0815815403283 -1137.2715389806096 0 0 0
5638 376 13 -0.5 -927.4977053786268 986.6161914262 -1173.2851105557186 0 0 0
4091 273 11 1 -897.0709299927744 1029.2204646255857 -1139.6043657617577 0 0 0
5637 376 12 0 -915.8368769792198 1073.7281120085495 -1169.0011279469845 0 0 0
4089 273 9 0 -853.7061383204476 1073.9881779729444 -1151.406928343283 0 0 0
5635 376 10 1 -874.8998541548425 1117.1084078641834 -1170.3443334175345 0 0 0
4183 279 13 -0.5 -839.0103575152425 1116.8811275212877 -1179.441571955394 0 0 0
4173 279 3 -1.5 -799.3402505030175 1111.4193751567195 -1195.5440177520984 0 0 0
4095 273 15 0 -796.1977875125225 1080.6924030936102 -1148.2818917277266 0 0 0
4086 273 6 -0.5 -820.4722579170345 1114.0010331344824 -1137.8867429054494 0 0 0
5632 376 7 2 -827.1907931683078 1154.419139015134 -1174.9964235144876 0 0 0
4903 327 13 -0.5 -834.1006698681299 1156.2002098393873 -1135.9680082292568 0 0 0
4094 273 14 -1.5 -795.0544237036108 1146.0123969356598 -1154.093638654469 0 0 0
5636 376 11 1 -787.2403778106241 1188.0247084028513 -1188.9152467801503 0 0 0
4893 327 3 -1.5 -798.2787849459346 1154.1520615327129 -1159.4244172228139 0 0 0
2176 146 1 0 -795.9401206909317 1198.0399363954075 -1141.8062695868553 0 0 0
4902 327 12 0 -752.8364848255967 1174.8379674346204 -1158.0887375812558 0 0 0
4082 273 2 0 -692.5310660233393 1132.97122988503 -1147.2738720555387 0 0 0
4180 279 10 1 -708.3080125640174 1164.3750183286238 -1181.5864963614374 0 0 0
4900 327 10 1 -689.4760208953194 1182.1522124646897 -1145.9361798969371 0 0 0
4177 279 7 2 -650.9189044981057 1189.2146498746129 -1175.5219902147703 0 0 0
4897 327 7 2 -633.5738829373229 1199.171577515513 -1127.9248356054989 0 0 0
4175 279 5 0 -828.1974640430615 1223.3486933654094 -1199.71283527937 0 0 0
4895 327 5 0 -785.0633978833932 1263.9859651659674 -1177.0026246126754 0 0 0
5634 376 9 0 -731.4585944041823 1224.9853497823701 -1186.3720925562652 0 0 0
5631 376 6 -0.5 -674.7551653341242 1229.4995238787592 -1182.2334475063026 0 0 0
5383 359 13 -0.5 -665.7534259864103 1218.5982533528538 -1138.0580696675418 0 0 0
5639 376 14 -1.5 -637.9631762036934 1225.0201855783582 -1157.494332273174 0 0 0
5373 359 3 -1.5 -634.7459775682934 1229.1518283568748 -1165.323730278391 0 0 0
4181 279 11 1 -599.2740365283531 1202.318182121629 -1167.1497991849153 0 0 0
5382 359 12 0 -596.6382718008832 1257.3667778745848 -1158.3767857727898 0 0 0
5380 359 10 1 -539.0822663408545 1270.2442237651649 -1141.282172064669 0 0 0
4179 279 9 0 -541.1109145735838 1220.9996293363854 -1145.6840878739642 0 0 0
4184 279 14 -1.5 -462.6464259993351 1273.7136834117014 -1160.4808738266606 0 0 0
4176 279 6 -0.5 -492.14806130043854 1244.3074727694284 -1145.0516634058379 0 0 0
4235 283 5 0 -2171.1641488127134 1339.1112691351848 -1129.7067647257034 0 0 0
4353 291 3 -1.5 -2118.2080041896616 1322.1844893695734 -1133.375609179291 0 0 0
4362 291 12 0 -2112.734272572285 1307.0508140038728 -1178.8259489958937 0 0 0
4240 283 10 1 -2051.663116117536 1298.3022802790065 -1182.5613576748021 0 0 0
4265 285 5 0 -621.3483388810008 1302.8108067801704 -1181.1046374027965 0 0 0
5377 359 7 2 -482.5907631239676 1290.460674475487 -1130.726287138886 0 0 0
5385 359 15 0 -322.42233346495067 1331.1645519301096 -1155.374055730686 0 0 0
4264 285 4 0 -248.55346164668643 1326.7645957237626 -1168.4867851128938 0 0 0
4355 291 5 0 -2101.4366519753416 1385.2733781253808 -1198.4520987218089 0 0 0
4242 283 12 0 -2074.4696762544077 1350.2970247683593 -1155.3519523919736 0 0 0
4233 283 3 -1.5 -2079.088025835013 1393.396617317036 -1127.7379138488377 0 0 0
3627 242 12 0 -263.3582924113644 -1280.5510200779727 -1085.7750275250353 0 0 0
3625 242 10 1 -243.4555367453841 -1333.991971613442 -1110.8560293927333 0 0 0
3751 251 1 0 -395.54306946632227 -982.6885989609947 -1070.215716776423 0 0 0
2667 178 12 0 -169.11205087548282 -768.9071633422311 -1097.6950945103165 0 0 0
2658 178 3 -1.5 -210.74433121609343 -781.1491767085847 -1072.6884947549731 0 0 0
2665 178 10 1 -109.34031443712286 -777.5123088126064 -1123.1369860310147 0 0 0
5521 369 1 0 -2735.0528935795314 -675.8106572706829 -1059.7113951235872 0 0 0
1310 88 5 0 -71.1861826294099 -742.1880056314969 -1078.0331969954987 0 0 0
5528 369 8 0 -2731.409289526775 -616.6461439831633 -1106.6698387768183 0 0 0
2656 178 1 0 -297.57702028104313 -661.5841784001034 -1119.8403537174256 0 0 0
5525 369 5 0 -2672.4145757723018 -549.6110943050925 -1096.728034023411 0 0 0
242 17 2 0 -976.2669870222862 -530.4537808225192 -1059.188256389138 0 0 0
928 62 13 -0.5 -917.0101030519767 -532.7377521289905 -1104.1936169284527 0 0 0
5532 369 12 0 -2646.9535169585665 -457.3519795055745 -1109.8435131200313 0 0 0
5530 369 10 1 -2610.672163632399 -440.62828199838145 -1061.124608990856 0 0 0
925 62 10 1 -811.9751157321967 -438.1475490753275 -1123.8242120855405 0 0 0
922 62 7 2 -770.1801216638853 -402.01984433477844 -1096.9345020625933 0 0 0
3388 226 13 -0.5 -785.7163243258161 -387.02388755467064 -1064.2786451192485 0 0 0
3378 226 3 -1.5 -773.5164135988391 -347.32972737249304 -1075.0354916820477 0 0 0
926 62 11 1 -729.4786540117907 -369.4741157719358 -1082.1967667393612 0 0 0
3387 226 12 0 -742.3145795628466 -315.79356136978805 -1055.4099317761263 0 0 0
924 62 9 0 -689.978773407918 -323.07130441553613 -1058.7016899652097 0 0 0
647 44 2 0 -17.576694801687367 -304.7034716888424 -1051.189803590743 0 0 0
3385 226 10 1 -694.6885266690634 -273.55217299686205 -1063.7916982652573 0 0 0
930 62 15 0 -635.3031368758141 -299.17606177901615 -1078.4279670305714 0 0 0
3382 226 7 2 -642.712363346834 -239.27610791742205 -1065.2902158453035 0 0 0
5443 363 13 -0.5 -621.6120950767736 -228.9477446347416 -1097.1155296589977 0 0 0
921 62 6 -0.5 -669.237777914692 -275.9835683116653 -1054.1034230556297 0 0 0
5433 363 3 -1.5 -583.4534262711352 -240.99779112408362 -1081.835907297789 0 0 0
3390 226 15 0 -453.30446395259423 -228.43187499383663 -1080.405162208791 0 0 0
3377 226 2 0 -382.5664329770918 -237.89671986714447 -1066.3845184240445 0 0 0
660 44 15 0 -75.40038345852044 -242.48464185909904 -1074.1309336195663 0 0 0
3125 209 5 0 -1251.7343115229692 -157.19013827901 -1099.0718920700715 0 0 0
3386 226 11 1 -594.0751249069299 -214.7364446146432 -1066.2509294042673 0 0 0
3384 226 9 0 -532.5576761001665 -195.27233680629752 -1074.5873756312553 0 0 0
3381 226 6 -0.5 -492.8001782425394 -165.66062375680033 -1093.7232654532525 0 0 0
3379 226 4 0 -311.62042691046884 -211.1813817640555 -1073.6146560398304 0 0 0
654 44 9 0 -127.76801089435376 -207.89459950872407 -1085.9242730788126 0 0 0
3389 226 14 -1.5 -464.9134735825369 -131.32574103761345 -1091.9956792729104 0 0 0
5060 338 5 0 -1074.2381184613757 -24.35986137716433 -1058.9911223045988 0 0 0
5064 338 9 0 -807.2277561883659 -13.76684841965357 -1067.4873469954307 0 0 0
5061 338 6 -0.5 -767.2395783291353 -1.2611131718713176 -1103.6523781330575 0 0 0
5056 338 1 0 -1164.4168255491954 33.556477186340395 -1053.6567084512465 0 0 0
5063 338 8 0 -1120.5083692716398 35.465225580584445 -1074.1630226210486 0 0 0
5070 338 15 0 -803.741235953883 51.184400751757906 -1097.9596338419508 0 0 0
5057 338 2 0 -769.4105401365878 130.1291695828528 -1113.316985340628 0 0 0
1291 87 1 0 -1073.7764062673098 209.85630882185995 -1059.8615860170967 0 0 0
1711 115 1 0 -662.1035166521655 450.65454571301797 -1106.4439691922819 0 0 0
1718 115 8 0 -610.4995979645254 459.4523355740524 -1123.2144351043764 0 0 0
4688 313 8 0 -2702.255963082429 578.7073359600499 -1088.4689338690685 0 0 0
4681 313 1 0 -2642.0321949868344 548.3550238574882 -1100.9081217217333 0 0 0
3017 202 2 0 -373.8384685080752 542.5114989936519 -1090.7813680549132 0 0 0
3019 202 4 0 -337.5871331830561 568.8864055835787 -1106.7460727172697 0 0 0
4685 313 5 0 -2734.4401702879377 656.6687842106707 -1053.1960273424045 0 0 0
5165 345 5 0 -2165.8064628003535 645.629820249634 -1104.8928482906626 0 0 0
5172 345 12 0 -2141.81245268605 751.7813841013954 -1097.3678235524465 0 0 0
4070 272 5 0 -2562.663532342884 873.7741447437194 -1084.5610408963425 0 0 0
4655 311 5 0 -1255.3258279216577 825.5653102986928 -1085.76780489025 0 0 0
5630 376 5 0 -982.6727258558736 1092.9120711647 -1082.4329668073137 0 0 0
2183 146 8 0 -823.7991672937455 1178.2863239203975 -1085.6708611954289 0 0 0
4084 273 4 0 -644.4568971552842 1143.171123108615 -1124.735965383301 0 0 0
4273 285 13 -0.5 -604.6420538452444 1171.5576052013673 -1115.2945092283537 0 0 0
2188 146 13 -0.5 -981.102424271306 1256.3234559246707 -1058.8019214179194 0 0 0
5640 376 15 0 -679.8439951867218 1263.5794100326884 -1118.8045222147268 0 0 0
4263 285 3 -1.5 -605.81939016812 1214.428106530715 -1119.7781570223647 0 0 0
4901 327 11 1 -581.7841546532476 1213.3449977831315 -1120.9032012135053 0 0 0
4272 285 12 0 -580.2848461248523 1259.8685060290768 -1108.5051572278203 0 0 0