LAMMPS data file via write_data, version 27 Jun 2024, timestep = 22400000, units = real

5730 atoms
15 atom types
5610 bonds
16 bond types
5730 angles
15 angle types

-3000 3000 xlo xhi
-1500 1500 ylo yhi
-1500 1500 zlo zhi

Masses

1 241.19
2 73.54000000000001
3 330.71
4 235.16
5 68.06999999999999
6 353.53
7 223.38
8 41.1
9 216.91
10 155.15
11 147.32
12 264.65
13 300.8
14 326.05
15 85.20999999999999

Pair Coeffs # lj/cut/coul/debye/gpu

1 0.71637 40.7505
2 0.665709 48.1397
3 1.15033 39.2216
4 0.726774 43.8077
5 0.514724 53.3428
6 1.17127 41.7847
7 1.2256 38.5601
8 0.675431 54.5696
9 1.26117 43.78
10 0.939007 42.5209
11 0.960667 41.1825
12 1.30988 48.0761
13 1.36645 37.7114
14 1.35529 39.2179
15 0.592003 47.2602

Bond Coeffs # harmonic

1 0.003 59.228
2 0.008 56.48
3 0.001 69.324
4 3.207 42.88
5 0.11 49.807
6 0.002 74.968
7 0.001 91.635
8 0.145 54.383
9 2.709 44.406
10 1.71 61.679
11 1.625 54.051
12 0.207 66.185
13 0.002 64.76
14 0.079 63.886
15 0.2 40
16 0.2 40

Angle Coeffs # harmonic

1 11.427 158.273
2 50.464 132.042
3 8.207 156.514
4 92.705 149.394
5 100 174.44
6 3.15 145.53
7 48.938 159.031
8 17.401 129.945
9 15.735 56.441
10 60 172.254
11 60.285 168.396
12 11.83 99.091
13 150 107.995
14 27.746 149.925
15 7.483 160.775

Atoms # full

2412 161 12 0 -2322.65398621058 -1438.954919964797 -1475.6716947386126 0 0 0
2552 171 2 0 -975.5939948701875 -1407.7908607671432 -1493.2702529576252 0 0 1
2565 171 15 0 -1007.0108271495964 -1347.1398981388795 -1483.6891031175292 0 0 1
2551 171 1 0 -1434.470179615792 -1211.077741066429 -1484.0430712928455 0 0 1
2558 171 8 0 -1377.0793641524954 -1210.7909513616426 -1488.9556442040864 0 0 1
2557 171 7 2 -1132.4002328395818 -1247.5312083653528 -1446.973396742804 0 0 1
2561 171 11 1 -1089.6222642463035 -1262.0538048673156 -1477.4174185292056 0 0 1
2555 171 5 0 -1320.7713253245379 -1188.948465934088 -1430.5289948686152 0 0 1
1082 73 2 0 -2489.831921219606 -1057.2060071779822 -1433.492322114353 0 0 1
1815 121 15 0 -2710.5286705649023 -591.0120202291129 -1462.0699387157492 0 0 0
5702 381 2 0 -357.32226437282475 -492.3194324997839 -1438.3931545685396 0 0 1
973 65 13 -0.5 -2707.4466108364204 -420.70873743193374 -1477.794801378152 0 0 0
963 65 3 -1.5 -2676.816233846246 -412.0867499712822 -1448.9656313340909 0 0 0
964 65 4 0 -2304.079083641735 -358.6673499365704 -1427.7032857012516 0 0 0
2594 173 14 -1.5 -1624.9646532658064 -357.37797743075515 -1470.3212109082808 0 0 1
2586 173 6 -0.5 -1620.7226312625712 -314.98304857535857 -1480.607529116028 0 0 1
2589 173 9 0 -1589.1902198724977 -273.14201734059145 -1492.4200178744443 0 0 1
1418 95 8 0 -1607.498635122481 440.6918809581305 -1429.307080284256 0 0 0
1411 95 1 0 -1556.8489923295526 397.4006268912324 -1436.8674271857699 0 0 0
5288 353 8 0 -2742.6597520552123 549.4367769523357 -1465.6885704351942 0 0 1
4927 329 7 2 -1830.1695944082996 560.6238566561619 -1446.383104179559 0 0 0
1412 95 2 0 -1749.6812165830743 856.0962517446218 -1446.814303218894 0 0 0
1414 95 4 0 -1752.0416016319887 891.1297094784044 -1491.4441510732968 0 0 0
4364 291 14 -1.5 -2031.4941175857641 1080.0871363679964 -1433.497845350748 0 0 0
4477 299 7 2 -2017.3673103842063 1102.9590044783347 -1460.211674098065 0 0 0
4365 291 15 0 -2047.8641542606804 1149.7288594481822 -1445.010920807609 0 0 0
4352 291 2 0 -2069.2550252002784 1146.4162727826395 -1484.9723337404046 0 0 0
4234 283 4 0 -1905.5053737849364 1149.1898809072206 -1464.7091600887056 0 0 0
2401 161 1 0 -2258.2321715859243 1362.6201672589134 -1475.7199774052006 0 -1 0
2407 161 7 2 -2289.713551445142 -1451.3309976661603 -1353.5894857064336 0 0 0
2410 161 10 1 -2304.5514961537165 -1441.700029062632 -1412.7635243867885 0 0 0
3769 252 4 0 -1488.4908196311644 -1306.3944857562026 -1412.2933727483553 0 0 0
3772 252 7 2 -1753.4088504257036 -1224.4043647238057 -1357.6141949580226 0 0 0
3776 252 11 1 -1701.8173366266185 -1219.7145118472195 -1371.478671168504 0 0 0
3780 252 15 0 -1588.9846205530216 -1231.1524626663834 -1397.0221994176075 0 0 0
3767 252 2 0 -1529.6008735514517 -1260.664469889385 -1390.0851507811801 0 0 0
3779 252 14 -1.5 -1544.9701889882772 -1215.913763917539 -1363.4207026457257 0 0 0
2562 171 12 0 -1220.7933810592806 -1213.616556617778 -1367.0419203415427 0 0 1
2560 171 10 1 -1175.3036614480354 -1234.65114294321 -1405.0631642236149 0 0 1
3774 252 9 0 -1638.294760743022 -1198.9406815919124 -1372.6453915046602 0 0 0
3771 252 6 -0.5 -1583.0954864020384 -1196.8756782845157 -1374.3865115873164 0 0 0
1084 73 4 0 -2451.826526265521 -1065.6878527736926 -1400.1471446849646 0 0 1
1814 121 14 -1.5 -2717.5158414011485 -668.2962697813499 -1400.9318074425662 0 0 0
1806 121 6 -0.5 -2713.9042937839113 -625.5176899607372 -1410.3391183262513 0 0 0
1809 121 9 0 -2701.7683661644446 -572.3757395234956 -1395.590439153118 0 0 0
1811 121 11 1 -2671.478910419085 -520.495951952101 -1367.8011827375778 0 0 0
1807 121 7 2 -2653.8234052153725 -472.1558352789089 -1353.1973867607294 0 0 0
5704 381 4 0 -343.63563652483475 -499.8578859669388 -1380.492970612243 0 0 1
972 65 12 0 -2667.951780294354 -376.18991984805865 -1410.7612274366265 0 0 0
241 17 1 0 -1334.907509335689 -424.6285908418864 -1415.0310103671454 0 0 0
248 17 8 0 -1327.219332310169 -441.4521102013262 -1357.5844652399292 0 0 0
965 65 5 0 -2741.4740914803615 -315.6282328435931 -1394.1493880557337 0 0 0
970 65 10 1 -2623.9255545592723 -357.02816054009713 -1371.7751699830326 0 0 0
975 65 15 0 -2409.817128145895 -303.6241676706751 -1368.151243446654 0 0 0
962 65 2 0 -2340.9837136683836 -347.21598091494496 -1390.5849557930424 0 0 0
968 65 8 0 -2810.577344168169 -298.1143779572001 -1357.3356206342035 0 0 0
2929 196 4 0 -2133.1687325620815 -289.3310497979373 -1355.1328680945496 0 0 0
2595 173 15 0 -1593.7115443949338 -291.52863000989805 -1417.1926167528038 0 0 1
1808 121 8 0 -2699.88536442261 -213.91291276590994 -1376.2316015686054 0 0 0
1801 121 1 0 -2666.2598989739154 -166.61384495529256 -1381.630312260646 0 0 0
1063 71 13 -0.5 -712.3619875349584 256.6856213490975 -1393.3388335971329 0 0 0
1053 71 3 -1.5 -725.9301648727696 296.4830633754412 -1399.7209345294448 0 0 0
1062 71 12 0 -703.4016416471022 344.73790092698573 -1401.3590978686143 0 0 0
1060 71 10 1 -654.1859313103577 377.8835571750345 -1375.6570656565227 0 0 0
1057 71 7 2 -604.152550656764 409.92376259917455 -1356.6550824309545 0 0 0
1065 71 15 0 -459.19472944525614 448.53313443264955 -1354.282021724817 0 0 0
1415 95 5 0 -1650.3078211283914 505.2106346220752 -1380.9805896144626 0 0 0
1052 71 2 0 -382.8970641022665 454.9917400134387 -1386.1890392407702 0 0 0
1054 71 4 0 -338.77855845855413 473.9465625993973 -1399.256231971161 0 0 0
1719 115 9 0 -313.82401414253144 512.2073955216746 -1373.8901883589645 0 0 0
1721 115 11 1 -368.5856612123626 484.22024062421764 -1351.0684459594654 0 0 0
1725 115 15 0 -238.1537765756053 498.73534792870487 -1370.0829522236315 0 0 0
1712 115 2 0 -169.0329179502463 505.56293414095995 -1366.3240560424867 0 0 0
5281 353 1 0 -2705.1927970658694 553.8949972734787 -1403.3955963392375 0 0 1
4931 329 11 1 -1837.632774105296 546.929532011686 -1395.129827550872 0 0 0
1716 115 6 -0.5 -266.57130325001606 539.6158090654704 -1377.0192312363813 0 0 0
1724 115 14 -1.5 -223.5326414062495 535.7987495856139 -1388.6019586692812 0 0 0
1417 95 7 2 -1702.1726615910384 665.672275131274 -1358.6871176497673 0 0 0
1421 95 11 1 -1727.781914845307 712.2664919586917 -1367.51478072396 0 0 0
1416 95 6 -0.5 -1816.5790436798757 794.7175340861829 -1367.2588534866911 0 0 0
1424 95 14 -1.5 -1857.5481924378284 807.884949534522 -1374.9126249129909 0 0 0
1419 95 9 0 -1771.835926045418 760.5652840754399 -1377.297007118182 0 0 0
1425 95 15 0 -1774.3296517363528 824.8920668485181 -1408.7801337518033 0 0 0
4244 283 14 -1.5 -2064.744293374717 1110.2891939161518 -1417.3617451185735 0 0 0
4236 283 6 -0.5 -2050.897636193803 1114.8333751102828 -1375.7164507300727 0 0 0
4481 299 11 1 -2013.5264044649232 1122.0568057708845 -1409.1094016684137 0 0 0
4356 291 6 -0.5 -2017.8087127034569 1113.6349615541435 -1407.8875236479212 0 0 0
4359 291 9 0 -2030.2434124281144 1160.2900047322696 -1383.4338181423627 0 0 0
4245 283 15 0 -1971.8825066011025 1144.1295800591877 -1396.1094546782476 0 0 0
4232 283 2 0 -1940.9935826702763 1157.2091330920234 -1423.1673034577866 0 0 0
2411 161 11 1 -2273.9821412876927 -1471.3169890818917 -1306.3612308830186 0 0 0
3768 252 3 -1.5 -1898.6553596475328 -1265.0079525609685 -1288.081358658705 0 0 0
3775 252 10 1 -1811.566617523357 -1225.2382406620436 -1339.6375247871704 0 0 0
3777 252 12 0 -1872.925383176573 -1235.720844994554 -1317.8781935535662 0 0 0
3770 252 5 0 -1940.634358302245 -1142.0672389308372 -1346.779753688322 0 0 0
2553 171 3 -1.5 -1237.7805616500586 -1183.704500756392 -1331.1230430529606 0 0 1
2563 171 13 -0.5 -1269.1425054943493 -1185.6284383117254 -1302.0750189363555 0 0 1
3616 242 1 0 -513.3432259827473 -1192.6536194608927 -1282.2000975722544 0 0 0
3773 252 8 0 -1999.1287115752036 -1070.6543091788574 -1341.313953279359 0 0 0
3766 252 1 0 -2021.0371680840217 -1031.060782990531 -1325.902549199031 0 0 0
5521 369 1 0 -2927.141605119383 -646.016454794076 -1285.6173836968658 0 0 0
5533 369 13 -0.5 -2792.8276105576033 -511.2224054206584 -1321.1605440224625 0 0 0
5523 369 3 -1.5 -2784.689441568716 -476.363167214243 -1296.93678716024 0 0 0
245 17 5 0 -1278.25588886399 -467.26799666994935 -1312.1749526571532 0 0 0
1810 121 10 1 -2628.8551324069886 -417.6571019779545 -1338.4164772230722 0 0 0
961 65 1 0 -2868.6168787560555 -338.1274453535618 -1331.073328961585 0 0 0
2938 196 13 -0.5 -2597.8733005536164 -306.9459279516979 -1349.7143433132348 0 0 0
967 65 7 2 -2572.4681362394745 -336.19143389958725 -1346.690511577322 0 0 0
1812 121 12 0 -2605.430495687678 -363.8493261751968 -1315.473539533695 0 0 0
1803 121 3 -1.5 -2574.2420436422535 -325.63431748286484 -1315.0408867151846 0 0 0
1813 121 13 -0.5 -2540.428643351309 -314.10709471744445 -1339.6187924207466 0 0 0
971 65 11 1 -2522.2767112423003 -319.80621097280294 -1333.9145015874144 0 0 0
2930 196 5 0 -2542.1582661464795 -359.73451127712093 -1307.2267950964222 0 0 0
2584 173 4 0 -1542.5697528275966 -321.74141404951706 -1278.4459000724403 0 0 1
1805 121 5 0 -2661.2443439997787 -292.521655605883 -1346.0748674533363 0 0 0
2928 196 3 -1.5 -2566.4904686040413 -280.73123412692405 -1337.4369490507033 0 0 0
2937 196 12 0 -2533.646280584488 -284.9815341054358 -1300.4814875796726 0 0 0
969 65 9 0 -2458.7370334264297 -298.28301111441164 -1328.9419529072468 0 0 0
2935 196 10 1 -2469.0383281664076 -272.6049415041125 -1292.014817893077 0 0 0
966 65 6 -0.5 -2417.837474317586 -261.8552037893721 -1313.663060044749 0 0 0
2932 196 7 2 -2408.7630928692056 -256.47851780820577 -1294.9395369579995 0 0 0
2936 196 11 1 -2358.8974982573295 -235.69614861096545 -1295.54029116283 0 0 0
2940 196 15 0 -2256.8401013492935 -229.20153111670064 -1316.7937790645908 0 0 0
2927 196 2 0 -2172.7806842736322 -247.32305808106736 -1341.620368668847 0 0 0
2582 173 2 0 -1559.7662698132976 -295.024644121698 -1334.752650691662 0 0 1
974 65 14 -1.5 -2402.0961601234344 -220.98823136586338 -1311.1367510314492 0 0 0
2934 196 9 0 -2301.6517908972 -202.35437634527923 -1303.9237446355914 0 0 0
2931 196 6 -0.5 -2256.4395675427613 -181.31721993524457 -1326.9381768894327 0 0 0
2939 196 14 -1.5 -2241.1913521235183 -144.17698425603382 -1346.4367544874456 0 0 0
658 44 13 -0.5 -233.1613386151347 -141.93848769429223 -1289.9821055737395 0 0 0
648 44 3 -1.5 -191.4808883476645 -135.5392083944089 -1296.414343782669 0 0 0
650 44 5 0 -92.15554017977867 -75.87032338721019 -1306.0876917289797 0 0 0
3121 209 1 0 -1304.834189774221 -53.00336019336162 -1279.1053827494266 0 0 0
1723 115 13 -0.5 -604.0487262191441 428.8672366752447 -1322.3863103059198 0 0 0
1061 71 11 1 -557.9239941842922 435.6442443817051 -1347.777018503698 0 0 0
1722 115 12 0 -529.6192848233599 449.599498974664 -1282.3714074892575 0 0 0
4926 329 6 -0.5 -1866.1728605804583 501.61613734552344 -1290.4926601730024 0 0 0
1713 115 3 -1.5 -579.0547528385915 450.9991279889747 -1295.956187457365 0 0 0
1059 71 9 0 -495.4502187998681 456.4580159480567 -1341.5540541231949 0 0 0
1720 115 10 1 -468.54322648930395 459.2525487055793 -1299.1727473528435 0 0 0
1056 71 6 -0.5 -457.3535870560385 495.0374281578409 -1343.8624963505601 0 0 0
1717 115 7 2 -413.91676623173544 469.80973510418653 -1324.9925717914753 0 0 0
1064 71 14 -1.5 -414.77882967864656 506.9714381783231 -1339.0448513753488 0 0 0
1714 115 4 0 -117.98142339676363 503.557293598584 -1339.7119924841347 0 0 0
4935 329 15 0 -1898.8874673155426 561.5082477677513 -1293.8874596531612 0 0 0
4929 329 9 0 -1859.3639246492103 533.9266032771081 -1333.8154336132307 0 0 0
1422 95 12 0 -1646.1499172819833 559.0055866206213 -1322.3715427466432 0 0 0
1413 95 3 -1.5 -1603.3123517372921 541.5978794070331 -1297.984066994995 0 0 0
1420 95 10 1 -1677.8140454821857 612.6891334751281 -1339.3042482309447 0 0 0
4479 299 9 0 -2010.3579003623784 1120.6578318378283 -1343.5678161650937 0 0 0
4239 283 9 0 -2043.948707971431 1150.2019448814037 -1332.4261768369302 0 0 0
4361 291 11 1 -2060.43053975528 1199.2318650234886 -1339.8931475481984 0 0 0
4476 299 6 -0.5 -2013.561877580066 1139.2854908590195 -1293.9700012178555 0 0 0
4485 299 15 0 -1962.9611315135091 1131.538632711953 -1300.6402903680428 0 0 0
4241 283 11 1 -2055.4147209806074 1200.9699042013203 -1293.5646467473873 0 0 0
4357 291 7 2 -2075.0577532606217 1239.7955489998644 -1307.5272574635108 0 0 0
4171 279 1 0 -920.7627010120951 1225.0975975836993 -1275.5833715016925 0 0 0
5374 359 4 0 -262.3976760764789 1343.746888314278 -1283.5932727055335 0 0 0
3621 242 6 -0.5 -146.62073177686784 -1464.5009000613054 -1202.1991351000622 0 0 0
3617 242 2 0 -50.24095031232091 -1405.7537383997071 -1223.2789234762447 0 0 0
3778 252 13 -0.5 -1886.294485675738 -1301.9092787773154 -1269.3923451647188 0 0 0
3620 242 5 0 -418.5786787856584 -1261.9756565571972 -1207.5690360331826 0 0 0
3623 242 8 0 -462.96636304765946 -1190.9365268875872 -1262.653910146098 0 0 0
5528 369 8 0 -2892.7949374071045 -615.4876968197138 -1241.6288742284296 0 0 0
5525 369 5 0 -2826.4463135962774 -544.9490253520468 -1227.4538234245374 0 0 0
1610 108 5 0 -1495.967997023825 -538.4122621655546 -1207.768420616352 0 0 0
1615 108 10 1 -1388.2245955707942 -581.8635519017727 -1201.9067057958885 0 0 0
253 17 13 -0.5 -1310.8440471326471 -582.5766014654633 -1219.670747911642 0 0 0
243 17 3 -1.5 -1281.045378681126 -573.089764335845 -1249.0189263191498 0 0 0
252 17 12 0 -1247.1670933422592 -536.2238529996044 -1252.1635585540137 0 0 0
5532 369 12 0 -2790.5248419110108 -465.80885425070875 -1247.1871172015844 0 0 0
2926 196 1 0 -2536.8413744234444 -490.06546899234473 -1203.8249578947857 0 0 0
1613 108 8 0 -1495.0131592025018 -489.767048442387 -1223.7513378757844 0 0 0
1606 108 1 0 -1462.0076079831922 -453.29302240534315 -1252.1514509771798 0 0 0
1614 108 9 0 -1223.6340409012653 -505.65098995844875 -1207.6845674300048 0 0 0
250 17 10 1 -1188.915252351799 -518.0458819974548 -1232.8692848190103 0 0 0
1611 108 6 -0.5 -1169.9443704455684 -500.4636690212509 -1225.9397138939896 0 0 0
1619 108 14 -1.5 -1138.7913584299683 -479.57943525321593 -1248.93505206794 0 0 0
247 17 7 2 -1137.955893870356 -492.2864587077881 -1209.501661253258 0 0 0
916 62 1 0 -1031.3853974347803 -454.7033601002203 -1229.910850087478 0 0 0
2933 196 8 0 -2535.1749167610537 -443.56194405073893 -1249.744766731781 0 0 0
923 62 8 0 -998.2248182059232 -397.2895482061961 -1240.2299077962698 0 0 0
655 44 10 1 -123.30192742262862 -168.74237135761012 -1213.4324098397792 0 0 0
657 44 12 0 -154.74605210562615 -143.71282364345475 -1264.557522909387 0 0 0
3128 209 8 0 -1280.9396133255445 -60.83851674711735 -1229.034900638952 0 0 0
1715 115 5 0 -536.1453098221956 385.3211259903302 -1210.0009815385902 0 0 0
4934 329 14 -1.5 -1872.7373047770488 495.13411890073655 -1247.1498161270463 0 0 0
4922 329 2 0 -1941.6160251197887 588.3405401975468 -1210.9032520329188 0 0 0
1423 95 13 -0.5 -1577.593836476944 558.9677042492815 -1268.778922098346 0 0 0
4663 311 13 -0.5 -1274.3283899651724 798.5998395571477 -1267.344182770385 0 0 0
4653 311 3 -1.5 -1238.928839495614 813.5184089256542 -1248.2821272063595 0 0 0
4081 273 1 0 -1097.420719282785 776.6464400581833 -1259.2821103650456 0 0 0
4662 311 12 0 -1223.719781490772 862.3134401503174 -1240.3533916235372 0 0 0
4660 311 10 1 -1174.2269641091475 895.3730415160511 -1219.2815122963182 0 0 0
4088 273 8 0 -1062.5351379824826 830.3587167813631 -1255.092157185461 0 0 0
4085 273 5 0 -1037.687357984604 896.0178376853086 -1232.765273446976 0 0 0
4655 311 5 0 -1326.50158001839 916.9693611685097 -1200.3835040382512 0 0 0
4092 273 12 0 -1071.2790539757684 980.1198844359834 -1211.3376018694305 0 0 0
4472 299 2 0 -1891.586260038722 1099.0742132569603 -1272.6492534407319 0 0 0
4474 299 4 0 -1866.3749246246557 1067.7783275463198 -1241.2745164483872 0 0 0
4484 299 14 -1.5 -2015.0029911781712 1174.8468978173744 -1267.4523503288003 0 0 0
4237 283 7 2 -2049.7886772085844 1248.6177450533507 -1270.4555777155279 0 0 0
4178 279 8 0 -908.8918571049359 1210.7893791996403 -1219.9106226746344 0 0 0
4355 291 5 0 -2179.3706120641727 1347.2496641229766 -1216.7244383798122 0 0 0
4360 291 10 1 -2088.4566591806943 1280.8000191626588 -1263.5091153590863 0 0 0
4362 291 12 0 -2094.983784932175 1331.8500646011867 -1229.610574100051 0 0 0
4240 283 10 1 -2050.4177289528648 1301.4709236265187 -1239.3802444473067 0 0 0
5372 359 2 0 -294.251813388575 1303.7048854101672 -1237.6451369998958 0 0 0
4351 291 1 0 -2288.9889237829525 1352.238821108398 -1273.40535851159 0 0 0
4358 291 8 0 -2265.883064035276 1369.1265668651085 -1237.1460446609779 0 0 0
4353 291 3 -1.5 -2076.684128340439 1378.5272450796313 -1232.5826118217788 0 0 0
4363 291 13 -0.5 -2051.7966254444677 1403.0710140829053 -1208.367542109826 0 0 0
4894 327 4 0 -484.1006919654344 1369.6103505508738 -1215.358260870804 0 0 0
2409 161 9 0 -2241.3719177441103 1494.6862359690529 -1257.801837267061 0 -1 0
2406 161 6 -0.5 -2236.7544517284764 1453.459851056025 -1222.3280174929662 0 -1 0
3629 242 14 -1.5 -129.61795620100912 1495.7412522849397 -1212.4142486513902 0 -1 0
2415 161 15 0 -2234.1593980409634 -1493.6831248947221 -1187.0864855221841 0 0 0
2402 161 2 0 -2179.1534867926352 -1466.2553827749202 -1132.2127402655517 0 0 0
3624 242 9 0 -162.78284246645896 -1427.962679268019 -1165.7415616766214 0 0 0
3630 242 15 0 -105.47366962184667 -1425.8128643859147 -1188.019914334891 0 0 0
3622 242 7 2 -251.89064487697172 -1351.8640928764398 -1143.3361074540771 0 0 0
3626 242 11 1 -206.06398364163272 -1380.7489817125368 -1150.4730087797461 0 0 0
3625 242 10 1 -305.7632687659166 -1323.4806041771847 -1132.2646919241693 0 0 0
2656 178 1 0 -286.07618422795775 -951.7550418509394 -1175.3134482954476 0 0 0
2663 178 8 0 -262.5979107232794 -905.540134431813 -1171.3331797772423 0 0 0
2660 178 5 0 -226.55345804839257 -860.4618561768965 -1134.4916384938458 0 0 0
2666 178 11 1 -12.84979676656542 -793.8602873036621 -1148.766640559848 0 0 0
1618 108 13 -0.5 -1518.683018867898 -645.008256433163 -1193.968513240911 0 0 0
1608 108 3 -1.5 -1475.9289674519787 -641.0855471580804 -1199.5931088668378 0 0 0
1617 108 12 0 -1447.3962439238198 -602.3043287594963 -1196.0424971340215 0 0 0
1612 108 7 2 -1331.112605831361 -558.8699607447668 -1197.2583379091354 0 0 0
1616 108 11 1 -1282.8207896990305 -532.7361270756883 -1197.9588489875164 0 0 0
1620 108 15 0 -1174.4753427540231 -525.330166846377 -1178.4885181291897 0 0 0
1609 108 4 0 -1057.0809105093792 -530.526084318214 -1184.7834288445304 0 0 0
1607 108 2 0 -1108.5909047123303 -519.5371920843023 -1176.2667025320472 0 0 0
251 17 11 1 -1089.2810924691867 -473.632579722231 -1193.3290231582002 0 0 0
249 17 9 0 -1024.1332831305174 -467.7328868247785 -1187.6538850215825 0 0 0
255 17 15 0 -967.7870677446623 -513.1071332308204 -1162.680789525697 0 0 0
254 17 14 -1.5 -932.1707306086489 -450.7312414250217 -1163.7219548253433 0 0 0
5530 369 10 1 -2765.5243358983375 -447.0253601016777 -1195.4892034111251 0 0 0
5527 369 7 2 -2729.3980516602865 -430.44897771738795 -1148.7030591444627 0 0 0
246 17 6 -0.5 -976.6449860669197 -448.45131894265546 -1168.9345950440818 0 0 0
920 62 5 0 -932.775711066158 -410.8421466545597 -1197.9797002520395 0 0 0
927 62 12 0 -892.9980712361048 -418.6220090279309 -1147.879950686928 0 0 0
925 62 10 1 -841.523657709695 -381.9410386988184 -1151.2344642557196 0 0 0
3388 226 13 -0.5 -800.2913955851714 -308.0887884773512 -1128.0925665234652 0 0 0
922 62 7 2 -792.8432506189762 -344.4244681559745 -1141.8910459555282 0 0 0
926 62 11 1 -748.9428075694825 -315.16267928671306 -1130.3235278753473 0 0 0
3378 226 3 -1.5 -765.5959027271099 -284.3091042836392 -1137.3562148828407 0 0 0
652 44 7 2 -98.80482196958137 -190.7707387583564 -1161.3699920374322 0 0 0
3125 209 5 0 -1252.913055399502 -110.35853623639373 -1166.3645768605643 0 0 0
5059 338 4 0 -787.6209838454466 -64.79298076763523 -1145.3654204636498 0 0 0
5056 338 1 0 -1178.8207142728088 20.07925685570038 -1165.1609208209697 0 0 0
5063 338 8 0 -1127.316556264193 26.551280535135366 -1135.6603593571097 0 0 0
1718 115 8 0 -570.8993473544659 392.9911683702608 -1142.4268448593482 0 0 0
4924 329 4 0 -1991.236262205322 585.6224921595623 -1187.0615674068388 0 0 0
5173 345 13 -0.5 -2147.3745792282666 710.6707955483935 -1150.3855989249123 0 0 0
5163 345 3 -1.5 -2130.2979807624147 747.4270832161017 -1135.938871682905 0 0 0
4066 272 1 0 -2602.448897107456 839.1092543355617 -1142.0370018095584 0 0 0
4658 311 8 0 -1386.5825271236715 946.7763443199357 -1164.897296247487 0 0 0
4093 273 13 -0.5 -1150.6375927680149 964.5622073867379 -1177.5343767274717 0 0 0
4657 311 7 2 -1133.1795044460514 929.6325318228395 -1188.9627509225552 0 0 0
4083 273 3 -1.5 -1115.25702090216 954.2883078845225 -1199.3471838475434 0 0 0
4661 311 11 1 -1102.2913495975868 967.4634950038749 -1165.2923043179294 0 0 0
4659 311 9 0 -1053.9510799632017 1002.0591857117496 -1141.0000370447074 0 0 0
4090 273 10 1 -1025.5547462208478 1006.9495708525515 -1182.605436864263 0 0 0
5638 376 13 -0.5 -1002.5905386355668 1022.2340452936934 -1143.8168781131121 0 0 0
4087 273 7 2 -970.7255630421439 1030.2740245653615 -1164.2007093337024 0 0 0
4091 273 11 1 -923.1274920853227 1046.6700595625177 -1144.5310906297434 0 0 0
4664 311 14 -1.5 -966.64067911938 1035.0965515004843 -1125.1892191325362 0 0 0
4665 311 15 0 -1026.2160894894016 1052.9510543091392 -1167.612683684677 0 0 0
5628 376 3 -1.5 -989.2336210925747 1062.8518611897327 -1140.7124321896044 0 0 0
4652 311 2 0 -962.5259530094565 1097.411364939007 -1177.9231667152476 0 0 0
4654 311 4 0 -911.7667818112592 1099.4586280467834 -1185.5548567366607 0 0 0
4893 327 3 -1.5 -810.7459519400444 1092.5153637394988 -1125.313017413647 0 0 0
4175 279 5 0 -854.724281368438 1186.338399361992 -1183.9585271781575 0 0 0
4182 279 12 0 -809.8622406840685 1135.5056793507392 -1137.9542063526123 0 0 0
4180 279 10 1 -751.5327741155888 1156.374373748543 -1131.3782984222576 0 0 0
4177 279 7 2 -691.7220362882449 1171.7588656314508 -1135.9550293062177 0 0 0
4181 279 11 1 -638.6489070569013 1181.2670205255617 -1145.8409788124006 0 0 0
4185 279 15 0 -498.4507161159187 1173.7707975063468 -1150.0001385751539 0 0 0
4172 279 2 0 -389.2473144906843 1165.1287126121194 -1148.031970988911 0 0 0
4174 279 4 0 -334.3631697089811 1183.8005971476653 -1171.5987258485727 0 0 0
4179 279 9 0 -575.6642853372623 1202.1706457449907 -1147.2836977006561 0 0 0
4176 279 6 -0.5 -531.8006715446724 1230.2713762137216 -1146.0800949169263 0 0 0
4905 327 15 0 -525.5201391278766 1270.061353543073 -1126.0657241451124 0 0 0
5377 359 7 2 -500.8440212948861 1232.1095477556112 -1129.2494295805718 0 0 0
4184 279 14 -1.5 -495.02042308294165 1245.2160460593698 -1166.933719783094 0 0 0
4904 327 14 -1.5 -463.4937422536031 1242.8247178578088 -1147.2583020616926 0 0 0
5381 359 11 1 -446.63959723376956 1232.6631716808124 -1135.494473656521 0 0 0
5379 359 9 0 -382.46014602643817 1241.6856396940343 -1146.9221949929315 0 0 0
5376 359 6 -0.5 -336.49931039692996 1231.5523857568558 -1171.3781998405268 0 0 0
4266 285 6 -0.5 -308.38433984544434 1269.1103027162026 -1164.9615589068267 0 0 0
4275 285 15 0 -306.7594764574243 1235.945718936072 -1125.4550892131044 0 0 0
5385 359 15 0 -347.5445574265356 1269.445579867968 -1194.06450161754 0 0 0
5384 359 14 -1.5 -293.5679644869609 1222.8514472878562 -1176.3173445485927 0 0 0
4892 327 2 0 -493.3715287090338 1318.236114061823 -1186.2815918540837 0 0 0
4269 285 9 0 -355.20334618919526 1276.397503619935 -1133.693865126801 0 0 0
4274 285 14 -1.5 -273.892490845108 1285.651233507112 -1187.8834638725452 0 0 0
4238 283 8 0 -2176.9459992729717 1383.149489760703 -1134.1631040464604 0 0 0
4235 283 5 0 -2126.5067837780657 1354.9168822784095 -1160.1244636210517 0 0 0
4242 283 12 0 -2050.0461496987627 1352.3273028337383 -1198.1972463244376 0 0 0
4233 283 3 -1.5 -2033.4032468956507 1390.1821104966452 -1171.4033403111325 0 0 0
2414 161 14 -1.5 -2239.3600567946564 1441.2824696878217 -1179.8242788686055 0 -1 0
4243 283 13 -0.5 -2034.370717338008 1432.7167857671184 -1175.129510106319 0 0 0
3863 258 8 0 -278.95322430644296 -1433.2247326918982 -1076.1196149294221 0 0 0
2404 161 4 0 -2150.332122727374 -1419.8729510708677 -1114.2359826944435 0 0 0
3856 258 1 0 -290.0313454378558 -1382.4852291078157 -1097.188028160547 0 0 0
3627 242 12 0 -356.63798071538076 -1287.261437147469 -1115.968638746071 0 0 0
3618 242 3 -1.5 -381.9961463803366 -1265.8779667033536 -1083.07162997267 0 0 0
2667 178 12 0 -164.88233114302665 -834.9505343371417 -1062.5010504380361 0 0 0
2665 178 10 1 -106.12431031087526 -825.6374877828786 -1088.6528432287369 0 0 0
2662 178 7 2 -55.8408978535771 -810.997244940445 -1121.2820071666188 0 0 0
1306 88 1 0 -176.02966643667722 -662.9519471316784 -1056.1535378880503 0 0 0
242 17 2 0 -920.2022597581412 -507.6266696190856 -1118.4645368867557 0 0 0
928 62 13 -0.5 -919.4073206180548 -471.7094373322172 -1086.1106308125482 0 0 0
244 17 4 0 -895.2430809208395 -505.5004432513129 -1077.2474903710845 0 0 0
5531 369 11 1 -2706.1100704955265 -411.10028892410185 -1103.1165028643006 0 0 0
918 62 3 -1.5 -925.0075217160938 -446.1578912426049 -1119.706712757709 0 0 0
5529 369 9 0 -2672.4933823322326 -372.2935214472721 -1059.4821193198588 0 0 0
930 62 15 0 -638.20981134565 -322.82328858430424 -1070.7426420229656 0 0 0
924 62 9 0 -693.587947001561 -290.4464504725485 -1101.6889980180538 0 0 0
3387 226 12 0 -738.9419192980573 -257.499244555095 -1105.296852551862 0 0 0
3385 226 10 1 -684.295878553772 -246.5793683351425 -1071.928032628524 0 0 0
921 62 6 -0.5 -651.4589880541373 -259.3781083162617 -1094.8052056659365 0 0 0
929 62 14 -1.5 -609.3436539187177 -252.6566609038549 -1085.5753292930203 0 0 0
3382 226 7 2 -627.0982554389828 -244.75980548128805 -1050.3630763460842 0 0 0
3383 226 8 0 -828.3457588703877 -173.85467076564657 -1053.351206394295 0 0 0
3376 226 1 0 -889.6481729942897 -150.4938229535069 -1057.973368256589 0 0 0
3380 226 5 0 -785.6610023766425 -205.21645703806 -1092.2726931883794 0 0 0
5435 363 5 0 -584.5910158560214 -195.85009087075568 -1057.5414615949758 0 0 0
656 44 11 1 -78.92968406575505 -205.9389700597764 -1113.0683723681145 0 0 0
3133 209 13 -0.5 -1347.7520187672592 -91.94012119644444 -1053.5429358259728 0 0 0
3123 209 3 -1.5 -1320.7200451847525 -112.79312647776118 -1078.7181141323872 0 0 0
3132 209 12 0 -1273.8395060869009 -124.39264466380084 -1073.3122076464283 0 0 0
5057 338 2 0 -786.2952035747178 -93.29797238673126 -1091.6569433084042 0 0 0
5438 363 8 0 -599.5191901375949 -99.6868771693534 -1090.106160927629 0 0 0
5431 363 1 0 -616.7639609056447 -46.01084971095882 -1099.3230542529104 0 0 0
5060 338 5 0 -1082.9856355352329 4.732497199674291 -1088.8447400736743 0 0 0
1291 87 1 0 -1099.4645852094388 306.9335401758976 -1067.278772667475 0 0 0
1711 115 1 0 -577.2151141442707 359.80097852189596 -1067.605596185231 0 0 0
1294 87 4 0 -733.1747201203259 440.05244199504597 -1071.812230776268 0 0 0
4681 313 1 0 -2825.585699685173 628.2062998649359 -1082.3672490906674 0 0 0
5168 345 8 0 -1996.6070900255463 633.8637359012813 -1056.7144769881413 0 0 0
5165 345 5 0 -2037.0175860712843 685.5819415819725 -1104.9152144040918 0 0 0
5172 345 12 0 -2092.4858699530178 757.3426456710046 -1103.985009533897 0 0 0
5170 345 10 1 -2084.342088907398 786.4871048919317 -1050.6064269460926 0 0 0
4073 272 8 0 -2593.912593065303 880.358506762485 -1105.0716305761289 0 0 0
4070 272 5 0 -2555.7002043019393 895.9744564609147 -1053.4703446896576 0 0 0
4651 311 1 0 -1415.653860845479 928.176596797559 -1107.4295031278662 0 0 0
4656 311 6 -0.5 -1007.0339304064323 1016.7985877606242 -1121.1062729319779 0 0 0
4095 273 15 0 -827.8947776344161 1048.7244269386179 -1108.6629101885865 0 0 0
2178 146 3 -1.5 -992.7871328088287 1053.3209063367387 -1101.1756797733456 0 0 0
2188 146 13 -0.5 -1032.3871695785185 1052.9634652864418 -1117.4438505775881 0 0 0
5630 376 5 0 -989.7887238575886 1106.0899336256307 -1064.418301976306 0 0 0
2187 146 12 0 -977.9862821111885 1058.487631626091 -1053.2460047830052 0 0 0
5637 376 12 0 -954.3465280620063 1082.6210091806586 -1108.4895311483774 0 0 0
2180 146 5 0 -918.9697127979614 1113.2099732999397 -1055.8930929779217 0 0 0
4089 273 9 0 -870.7123621863567 1061.1142590621253 -1104.4859901846735 0 0 0
4173 279 3 -1.5 -848.4620934517293 1110.8005177829286 -1116.086637024224 0 0 0
5635 376 10 1 -893.4606465527249 1106.462473018336 -1102.949523154068 0 0 0
4086 273 6 -0.5 -831.0754735041044 1088.4011500227034 -1082.2285923623983 0 0 0
4903 327 13 -0.5 -852.5905035726155 1100.939264458719 -1119.234349686874 0 0 0
4902 327 12 0 -765.5796972827993 1111.987949272367 -1105.9046981848137 0 0 0
4082 273 2 0 -773.2251396949197 1056.584637026416 -1108.47198847985 0 0 0
4084 273 4 0 -725.040263351308 1097.117142345133 -1086.4529698843087 0 0 0
4183 279 13 -0.5 -876.221271766654 1131.2813203879184 -1090.7446938338908 0 0 0
5632 376 7 2 -838.8776855134986 1134.3216282224596 -1099.3436327085556 0 0 0