LAMMPS data file via write_data, version 27 Jun 2024, timestep = 8000000, units = real

5730 atoms
15 atom types
5469 bonds
16 bond types
5730 angles
15 angle types

-3000 3000 xlo xhi
-1500 1500 ylo yhi
-1500 1500 zlo zhi

Masses

1 241.19
2 73.54000000000001
3 330.71
4 235.16
5 68.06999999999999
6 353.53
7 223.38
8 41.1
9 216.91
10 155.15
11 147.32
12 264.65
13 300.8
14 326.05
15 85.20999999999999

Pair Coeffs # lj/cut/coul/debye/gpu

1 0.71637 40.7505
2 0.665709 48.1397
3 1.15033 39.2216
4 0.726774 43.8077
5 0.514724 53.3428
6 1.17127 41.7847
7 1.2256 38.5601
8 0.675431 54.5696
9 1.26117 43.78
10 0.939007 42.5209
11 0.960667 41.1825
12 1.30988 48.0761
13 1.36645 37.7114
14 1.35529 39.2179
15 0.592003 47.2602

Bond Coeffs # harmonic

1 0.003 59.228
2 0.008 56.48
3 0.001 69.324
4 3.207 42.88
5 0.11 49.807
6 0.002 74.968
7 0.001 91.635
8 0.145 54.383
9 2.709 44.406
10 1.71 61.679
11 1.625 54.051
12 0.207 66.185
13 0.002 64.76
14 0.079 63.886
15 0.2 40
16 0.2 40

Angle Coeffs # harmonic

1 11.427 158.273
2 50.464 132.042
3 8.207 156.514
4 92.705 149.394
5 100 174.44
6 3.15 145.53
7 48.938 159.031
8 17.401 129.945
9 15.735 56.441
10 60 172.254
11 60.285 168.396
12 11.83 99.091
13 150 107.995
14 27.746 149.925
15 7.483 160.775

Atoms # full

2412 161 12 0 -2307.500862814767 -1471.9833003996107 -1426.4517650101775 0 0 0
3769 252 4 0 -1589.5281311607628 -1058.4305113025353 -1463.8102981849152 0 0 0
2586 173 6 -0.5 -1600.334052433889 -403.2839734623409 -1475.6788043225738 0 0 1
2595 173 15 0 -1635.55161253579 -389.2703183010313 -1466.2484410139375 0 0 1
2594 173 14 -1.5 -1561.8233367276907 -419.42688041778814 -1461.5549821105665 0 0 1
2933 196 8 0 -2590.3889470749205 -242.85416175803923 -1463.0256087057683 0 0 0
968 65 8 0 -2722.515922205517 -215.488451625944 -1464.1504157763989 0 0 0
961 65 1 0 -2730.5985301228548 -155.3467834164845 -1438.0269691341548 0 0 0
1071 72 6 -0.5 -442.88136913001495 -160.62300413621116 -1483.3653237028832 0 0 1
1079 72 14 -1.5 -411.35036354506485 -145.6837567577008 -1456.4863002035065 0 0 1
650 44 5 0 -270.3087394972552 -19.770564986559986 -1493.3483414123111 0 0 0
657 44 12 0 -220.64730772153837 47.42423073569062 -1460.664264922603 0 0 0
4923 329 3 -1.5 -1806.7400814560804 494.332798879026 -1484.8990534393079 0 0 0
1415 95 5 0 -1700.2096406896019 512.0558583206963 -1461.7236630079635 0 0 0
1051 71 1 0 -652.3100856703787 494.7850225330519 -1494.48349188692 0 0 0
1058 71 8 0 -646.1917549305755 498.3278883382381 -1442.97579364607 0 0 0
4932 329 12 0 -1831.7717737480325 534.1063319863597 -1466.3437638925707 0 0 0
4930 329 10 1 -1828.5278973753245 586.3453031745794 -1431.9978200903904 0 0 0
1418 95 8 0 -1740.0917420271016 541.2214968591101 -1499.5352721866275 0 0 0
4483 299 13 -0.5 -2244.672492191929 910.0799020651473 -1498.8904824817141 0 0 0
4473 299 3 -1.5 -2206.291708435381 906.1682398101722 -1479.8195744927536 0 0 0
4482 299 12 0 -2166.1710648286166 934.4255625861631 -1488.7008968036657 0 0 0
4480 299 10 1 -2113.0107207338806 954.8050729442905 -1470.2192893514855 0 0 0
4477 299 7 2 -2055.9899337138518 973.6621410393216 -1456.0959040688138 0 0 0
1409 94 14 -1.5 -2128.096352934699 993.7848875362633 -1499.8315962902445 0 0 1
4481 299 11 1 -2010.9876726894597 997.9092924111801 -1440.4719103156795 0 0 0
4472 299 2 0 -1888.3850649021479 1108.0171573842022 -1433.3495466757822 0 0 0
4081 273 1 0 -1210.346076954492 1087.5323778332279 -1443.526307663054 0 0 0
4474 299 4 0 -1849.1997064435488 1149.6457663608705 -1466.0741064188298 0 0 0
5626 376 1 0 -1078.1873243593398 1257.8399375929316 -1433.2170326301066 0 0 0
2403 161 3 -1.5 -2335.434405005174 1488.3802328923862 -1441.4617700647048 0 -1 0
2413 161 13 -0.5 -2323.8912932350477 1453.5184302835603 -1463.5429714880852 0 -1 0
2410 161 10 1 -2247.481957856303 -1447.687509283967 -1413.210189482177 0 0 0
2407 161 7 2 -2193.344201640466 -1426.357195017746 -1393.601841178606 0 0 0
2411 161 11 1 -2143.3122189359738 -1414.3000512060494 -1375.616616487597 0 0 0
3616 242 1 0 -375.5796632955866 -1289.611749323819 -1395.1345311291811 0 0 0
3771 252 6 -0.5 -1740.3706324090958 -1150.2286335992578 -1402.6267846952771 0 0 0
3774 252 9 0 -1784.957577895772 -1146.0152223134696 -1369.7100574813549 0 0 0
3779 252 14 -1.5 -1701.794637894871 -1129.4560266058934 -1411.553364806521 0 0 0
3780 252 15 0 -1725.655551571823 -1096.3156248091404 -1383.4783220365289 0 0 0
3767 252 2 0 -1635.750363240818 -1070.3554658391574 -1417.784207773293 0 0 0
1813 121 13 -0.5 -2591.4930048338565 -661.194676673938 -1415.3609541483713 0 0 0
1803 121 3 -1.5 -2575.7881688886832 -641.4398016537588 -1381.1209839815035 0 0 0
1812 121 12 0 -2534.220763924212 -617.7276725769054 -1368.324688871155 0 0 0
1810 121 10 1 -2470.7650802059616 -614.6810050891341 -1367.499707529215 0 0 0
1807 121 7 2 -2409.410922286775 -610.8602603725631 -1363.0165868205297 0 0 0
1814 121 14 -1.5 -2206.7153110681816 -602.9405369067337 -1405.8840505761077 0 0 0
1811 121 11 1 -2356.7891146855886 -599.2767012994503 -1362.4436138712108 0 0 0
1809 121 9 0 -2292.422735675723 -582.959755958164 -1368.0103556824115 0 0 0
1806 121 6 -0.5 -2239.9922395304493 -588.1054142083302 -1379.2714690730704 0 0 0
1815 121 15 0 -2259.2087585700788 -517.5958312345781 -1383.3220926735667 0 0 0
1802 121 2 0 -2217.9946762417967 -431.31470460607375 -1377.32092890745 0 0 0
1804 121 4 0 -2185.840258652663 -388.06824267346633 -1401.3448012712588 0 0 0
2582 173 2 0 -1613.0639796525272 -342.51546292304465 -1405.8794911248904 0 0 1
2584 173 4 0 -1607.69460286774 -301.3836807749621 -1381.870342663808 0 0 1
965 65 5 0 -2748.734224225353 -280.5228631034585 -1424.6252869273062 0 0 0
2930 196 5 0 -2580.1800184350022 -268.54633452154843 -1401.6514031435033 0 0 0
655 44 10 1 -216.19466941893288 43.51768345976234 -1398.376574240832 0 0 0
1711 115 1 0 -465.6343263676215 238.1324881699345 -1364.0521596172632 0 0 0
1423 95 13 -0.5 -1759.5961917610582 430.94265460426175 -1418.2189633370222 0 0 0
1413 95 3 -1.5 -1728.6748005155196 426.0996336963154 -1388.4791120970674 0 0 0
1422 95 12 0 -1686.1168146018538 452.05171624504345 -1381.9633959076866 0 0 0
1420 95 10 1 -1628.4947580879984 470.88343258530995 -1354.5367637258557 0 0 0
1055 71 5 0 -666.2397432004083 520.7437590754822 -1366.119436501595 0 0 0
4927 329 7 2 -1833.8566299168026 642.3672044812146 -1405.5889435510885 0 0 0
4931 329 11 1 -1831.5746902835024 690.8241643785201 -1381.6044984594723 0 0 0
4479 299 9 0 -1961.3074012272991 1027.8336778462942 -1407.8080449588438 0 0 0
4476 299 6 -0.5 -1910.1644304248266 1038.4254062705106 -1392.9541400774663 0 0 0
4088 273 8 0 -1192.6744940833398 1038.088229987078 -1405.8488017100588 0 0 0
4485 299 15 0 -1926.4332209797058 1078.6156275472727 -1422.1108204904463 0 0 0
4484 299 14 -1.5 -1871.8363976469957 1059.9672214194902 -1397.19255535308 0 0 0
5630 376 5 0 -1021.6633804593243 1175.8715156742037 -1350.7370954367104 0 0 0
4268 285 8 0 -552.2133683196082 1174.5833496885093 -1397.5036444246746 0 0 0
4261 285 1 0 -496.9983300609327 1156.0174695217936 -1417.4099211947296 0 0 0
5633 376 8 0 -1049.1050626888618 1245.150195581237 -1397.873969567832 0 0 0
4231 283 1 0 -2287.9639068763167 1381.0385062367488 -1367.150863977011 0 0 0
2409 161 9 0 -2088.3252412516476 -1407.8098429703855 -1337.4915262546263 0 0 0
2406 161 6 -0.5 -2038.3051077974549 -1396.3914773655242 -1324.5930052298509 0 0 0
2415 161 15 0 -2073.946071818699 -1364.7509876231707 -1280.7095271871667 0 0 0
2414 161 14 -1.5 -2004.4319918088333 -1394.451277814221 -1295.1685471280005 0 0 0
3623 242 8 0 -407.85881783117304 -1288.9138730028792 -1343.7361525083963 0 0 0
3620 242 5 0 -405.9590534876331 -1319.7784187285713 -1286.4926346404632 0 0 0
3776 252 11 1 -1823.06215945664 -1157.6788340844532 -1314.7637740410717 0 0 0
3772 252 7 2 -1860.9456402620744 -1164.3276283940959 -1277.1929110228805 0 0 0
1805 121 5 0 -2572.8822770779634 -528.7401599679428 -1329.235636149179 0 0 0
916 62 1 0 -1030.8030968659402 -511.9076419344224 -1328.2193248282194 0 0 0
923 62 8 0 -1004.2849454734263 -509.05547450406914 -1278.4558011159668 0 0 0
973 65 13 -0.5 -2819.590488934377 -321.44316607528924 -1346.4215458182414 0 0 0
963 65 3 -1.5 -2787.3956683745996 -325.46546521592234 -1318.5642242223025 0 0 0
972 65 12 0 -2738.3277337509694 -318.7448121744668 -1320.1687134980757 0 0 0
970 65 10 1 -2681.7918375191275 -299.95843468264945 -1301.5998144804707 0 0 0
967 65 7 2 -2635.712747894346 -261.28306590638954 -1289.215726439525 0 0 0
2938 196 13 -0.5 -2613.098768321477 -294.79746287327254 -1286.5044971491645 0 0 0
2928 196 3 -1.5 -2603.1670172200097 -253.1429226175972 -1291.4123993704368 0 0 0
2937 196 12 0 -2560.381782587261 -234.7941563008522 -1307.564980393163 0 0 0
971 65 11 1 -2597.178597949872 -224.2660376077716 -1282.7948930496527 0 0 0
2935 196 10 1 -2501.6278498229212 -211.73622455813634 -1298.290160065679 0 0 0
966 65 6 -0.5 -2493.321257625013 -160.24664883256497 -1299.9107745856127 0 0 0
969 65 9 0 -2539.009821603552 -186.68299717937248 -1283.644358125456 0 0 0
2932 196 7 2 -2444.830751358127 -189.078072698471 -1295.082946945652 0 0 0
2936 196 11 1 -2396.6443392389274 -166.13157197893287 -1286.3979047412558 0 0 0
2927 196 2 0 -2222.018795437063 -165.65778774298036 -1291.9784363402803 0 0 0
2929 196 4 0 -2167.7199167463036 -163.79838838815732 -1293.9452077957417 0 0 0
974 65 14 -1.5 -2450.447022990601 -149.23574485351227 -1296.9911542472164 0 0 0
2934 196 9 0 -2344.192604440293 -124.89318044083939 -1293.1577568053685 0 0 0
2940 196 15 0 -2277.466908436505 -137.0689062452837 -1312.0134406834368 0 0 0
2931 196 6 -0.5 -2313.7498342757194 -80.67402734851994 -1297.0470372218783 0 0 0
2939 196 14 -1.5 -2277.4181581567777 -58.44623743904942 -1310.86834461296 0 0 0
652 44 7 2 -207.4115030530726 50.734357573716984 -1337.391550890338 0 0 0
656 44 11 1 -203.29035287725782 56.878904598287015 -1283.3920860496326 0 0 0
1718 115 8 0 -484.253702816583 264.2295432959567 -1321.8239849574704 0 0 0
1054 71 4 0 -350.81493563050196 438.86174767497573 -1284.6344499716124 0 0 0
1417 95 7 2 -1579.8069450109717 496.5381260859193 -1326.3342500506023 0 0 0
1421 95 11 1 -1538.2218156414974 522.3992120763033 -1302.465827487688 0 0 0
1053 71 3 -1.5 -738.2874319852805 517.2845702922425 -1305.5240632564835 0 0 0
1062 71 12 0 -689.0884410653244 511.34030451079394 -1300.6445153781901 0 0 0
1419 95 9 0 -1484.3149586344614 558.4647127792973 -1286.447363108858 0 0 0
1063 71 13 -0.5 -768.8268358301881 528.5567258382913 -1276.5837667466901 0 0 0
1416 95 6 -0.5 -1454.6542810210192 603.3534945580609 -1284.5375022102717 0 0 0
1424 95 14 -1.5 -1447.493818528293 646.772980033692 -1279.3751383370404 0 0 0
4929 329 9 0 -1835.5119447682514 741.2350924270215 -1337.639923486433 0 0 0
4935 329 15 0 -1878.8933405814828 755.0898666068961 -1290.7233815799257 0 0 0
4926 329 6 -0.5 -1819.6544014642304 768.7784291720478 -1293.5122837026925 0 0 0
4683 313 3 -1.5 -2852.5504411766465 844.3668258708459 -1304.2528257294996 0 0 0
4693 313 13 -0.5 -2830.2508667529646 860.017355641216 -1338.0113000481379 0 0 0
4655 311 5 0 -1368.385596067802 1034.473199499445 -1291.9212717895757 0 0 0
4085 273 5 0 -1145.2186808271038 1019.7660300919372 -1335.7313983800436 0 0 0
5638 376 13 -0.5 -994.2653152870827 1031.435003082864 -1281.0296790579555 0 0 0
4658 311 8 0 -1419.029556413312 1115.8064129496192 -1291.8269554742958 0 0 0
4654 311 4 0 -1016.8332211274455 1094.2281335956357 -1295.0234110745093 0 0 0
5635 376 10 1 -890.4549369964778 1118.866631598025 -1278.2367795627652 0 0 0
4651 311 1 0 -1449.1714472846388 1165.515148192268 -1323.4850732580826 0 0 0
4903 327 13 -0.5 -839.5987925641919 1138.4500132952178 -1313.4767471622883 0 0 0
4183 279 13 -0.5 -819.6837760102434 1181.1252617887262 -1285.0366842677702 0 0 0
4173 279 3 -1.5 -783.6474582818736 1161.0337964842886 -1298.1200106479025 0 0 0
4182 279 12 0 -737.4573563209333 1156.684080539432 -1281.2226454692388 0 0 0
4265 285 5 0 -594.8432589535068 1182.5576143342316 -1349.9416012331046 0 0 0
4175 279 5 0 -724.7145045781535 1209.0566398252133 -1289.0788154406255 0 0 0
4235 283 5 0 -2230.1314358476884 1306.8427117401138 -1294.895421729619 0 0 0
4171 279 1 0 -741.4134466178238 1320.8578359101343 -1306.430058895265 0 0 0
4238 283 8 0 -2286.003876082499 1353.6553350674471 -1313.7674557232394 0 0 0
4234 283 4 0 -1918.5838787425787 1362.8475409547152 -1302.2144894041696 0 0 0
2402 161 2 0 -2051.917504456998 -1352.0463662463146 -1229.4469033348842 0 0 0
3628 242 13 -0.5 -388.33865290618553 -1414.7330206957395 -1253.942137693976 0 0 0
3618 242 3 -1.5 -356.8982079999448 -1402.2385075356774 -1227.380637525753 0 0 0
3627 242 12 0 -337.6093345152501 -1356.7977212869218 -1217.011638321615 0 0 0
3625 242 10 1 -281.2877265831941 -1323.3838889639449 -1221.883015465694 0 0 0
3622 242 7 2 -221.32299765815034 -1309.8667196019912 -1225.2893212210101 0 0 0
3626 242 11 1 -168.4870008811957 -1298.9747809677658 -1234.2937519070517 0 0 0
3624 242 9 0 -102.03588779575774 -1295.456303964458 -1234.2811381167446 0 0 0
3630 242 15 0 -78.06729945059423 -1340.6759203995557 -1203.2131643745197 0 0 0
3629 242 14 -1.5 -15.152348182099757 -1334.505387897552 -1228.6825906283123 0 0 0
3621 242 6 -0.5 -52.47985841806939 -1311.767399412221 -1222.976692883425 0 0 0
3775 252 10 1 -1903.957807521191 -1165.2555186069726 -1233.4770675554748 0 0 0
3778 252 13 -0.5 -2012.6238298974831 -1101.7219275726688 -1215.0263887124258 0 0 0
2666 178 11 1 -74.17712923914226 -812.133422742522 -1203.0504668971876 0 0 0
2664 178 9 0 -23.12679859515309 -792.9970609956292 -1240.4000281542415 0 0 0
2670 178 15 0 -3.033829650322583 -730.4782694098284 -1258.4610787297202 0 0 0
1808 121 8 0 -2625.4984713669214 -483.2412466291689 -1262.0362855927435 0 0 0
1801 121 1 0 -2658.1779575767787 -438.3425144073744 -1239.9254571171243 0 0 0
241 17 1 0 -1285.770067680728 -423.26435038305283 -1264.4098365208129 0 0 0
248 17 8 0 -1271.9786419294403 -415.2223693420442 -1205.9246485035917 0 0 0
975 65 15 0 -2456.51015861217 -193.9190200192645 -1250.7557072953105 0 0 0
962 65 2 0 -2366.919621628101 -151.89022430643797 -1246.4929277445044 0 0 0
964 65 4 0 -2324.5451448522667 -107.7055620598747 -1255.013032393942 0 0 0
3124 209 4 0 -800.2734524223109 -39.35522228198418 -1214.0218181997952 0 0 0
3121 209 1 0 -1166.8224967301144 124.98359053216726 -1231.819406342941 0 0 0
654 44 9 0 -182.78645542309403 77.78036400234518 -1223.3011910130497 0 0 0
1715 115 5 0 -446.9985372661814 262.2813010335158 -1246.1500823623655 0 0 0
5161 345 1 0 -2129.47787949595 484.5319667466074 -1215.4680039461814 0 0 0
1060 71 10 1 -645.0003922334686 492.44777142080903 -1263.7444912733974 0 0 0
1061 71 11 1 -540.3892638723798 472.62212500373306 -1217.231293388954 0 0 0
1057 71 7 2 -590.3840237672358 478.58825054455036 -1237.514313520468 0 0 0
1059 71 9 0 -474.8056683343528 458.2266192884712 -1202.1457183267676 0 0 0
1065 71 15 0 -440.1619185176531 457.33644778034244 -1236.387846929687 0 0 0
1052 71 2 0 -396.1315691687084 461.96663711625814 -1258.580328297648 0 0 0
1056 71 6 -0.5 -422.5634511250965 464.7580342887421 -1204.9218256416316 0 0 0
1425 95 15 0 -1477.2988479618227 606.44144453738 -1233.8261771263765 0 0 0
4688 313 8 0 -2980.222043467468 799.3718469671464 -1241.120073720711 0 0 0
4922 329 2 0 -1938.080470414471 821.9938249951362 -1250.12993425309 0 0 0
4934 329 14 -1.5 -1789.8901212211852 790.4559792643603 -1269.4543475651667 0 0 0
4685 313 5 0 -2944.75737924244 842.2672722809921 -1239.3108351107935 0 0 0
4692 313 12 0 -2851.0886540036436 850.0436720147908 -1252.6960586695204 0 0 0
4924 329 4 0 -1952.8900531855393 882.1039808903826 -1245.1746318994135 0 0 0
4663 311 13 -0.5 -1430.1619303712432 946.6790763319132 -1201.3948949080923 0 0 0
4662 311 12 0 -1356.0027100566049 961.0893178968057 -1242.9090220485355 0 0 0
4653 311 3 -1.5 -1403.6570190458553 971.8086565928454 -1224.2457974435636 0 0 0
4660 311 10 1 -1294.0875939823777 967.4498009487255 -1224.5593598647254 0 0 0
4657 311 7 2 -1233.8833482653906 970.2019758383728 -1211.978732573322 0 0 0
4093 273 13 -0.5 -1210.6262515001506 990.7585970095965 -1237.323949175461 0 0 0
4083 273 3 -1.5 -1168.515338127428 989.8058877072781 -1228.2593083572451 0 0 0
4092 273 12 0 -1127.2020972731232 1003.7031520476439 -1251.445389128518 0 0 0
4090 273 10 1 -1065.5150284154424 1011.7414341124581 -1247.7771829963683 0 0 0
4656 311 6 -0.5 -1069.1402811380253 1016.6913140855366 -1203.6268872605206 0 0 0
4664 311 14 -1.5 -1046.5645430769478 1034.4696384360182 -1236.9159980040286 0 0 0
4087 273 7 2 -1006.8046373884142 1029.6726378235649 -1243.409948322272 0 0 0
4665 311 15 0 -1094.5402737011054 1072.5975069489177 -1223.1967937127436 0 0 0
4652 311 2 0 -1045.2902106002646 1092.508021901905 -1257.6834779371627 0 0 0
5628 376 3 -1.5 -982.9321392874634 1066.6935377774776 -1260.1682559033038 0 0 0
5637 376 12 0 -949.9552627039267 1103.3775541553237 -1270.8777920101493 0 0 0
4091 273 11 1 -957.5926275168208 1052.57106762603 -1239.336016156634 0 0 0
4089 273 9 0 -901.2760518511426 1088.9709504239593 -1247.439492044094 0 0 0
4893 327 3 -1.5 -836.6476073435286 1120.7475250198954 -1274.361492392232 0 0 0
4095 273 15 0 -849.9255964847345 1087.3080841528515 -1237.1576019056054 0 0 0
4082 273 2 0 -780.9486551666862 1066.2345420325307 -1234.4648587562397 0 0 0
4084 273 4 0 -726.5447754995769 1082.2170888181588 -1244.7692337927044 0 0 0
4177 279 7 2 -645.1128343820335 1116.5194782124772 -1211.2251763335707 0 0 0
4243 283 13 -0.5 -2268.562878598876 1197.5999332274823 -1200.974902080653 0 0 0
5632 376 7 2 -835.7212331273054 1145.7710268811077 -1273.8616885349372 0 0 0
4086 273 6 -0.5 -865.2317167729824 1130.9526103923126 -1246.8852264583136 0 0 0
4094 273 14 -1.5 -856.130188137546 1173.4123724094513 -1257.3384103091198 0 0 0
4902 327 12 0 -808.5058931936143 1127.645086156989 -1233.542297268813 0 0 0
5636 376 11 1 -785.2410342449731 1162.4252276001098 -1262.374094348493 0 0 0
4900 327 10 1 -750.9597330477136 1134.1153224929453 -1203.339251978158 0 0 0
4180 279 10 1 -693.4444541284453 1130.029909742004 -1248.3618409787534 0 0 0
5634 376 9 0 -728.1098620224121 1175.3931633274633 -1229.1512038481796 0 0 0
5383 359 13 -0.5 -682.8625447977714 1165.5189911250923 -1224.86759143552 0 0 0
5631 376 6 -0.5 -680.3689301572199 1168.3662855478508 -1210.6623983256718 0 0 0
5373 359 3 -1.5 -645.6217854025523 1156.4336772369786 -1243.4730494943483 0 0 0
4263 285 3 -1.5 -626.4808599662655 1191.931084210347 -1217.4401461389807 0 0 0
5382 359 12 0 -601.9266380132923 1148.7262529716484 -1219.4378309732492 0 0 0
4273 285 13 -0.5 -663.770850460755 1199.7119417316233 -1237.2616263479842 0 0 0
4272 285 12 0 -579.660126799218 1197.1250339990352 -1231.051230729489 0 0 0
5380 359 10 1 -540.8718380719527 1165.553673248234 -1222.1379559111454 0 0 0
5377 359 7 2 -480.3757382226509 1173.869096911721 -1216.3643365962591 0 0 0
5381 359 11 1 -427.25022350371023 1184.8618347684549 -1215.532837220062 0 0 0
5379 359 9 0 -366.1515184748134 1198.9479549893163 -1201.9403435611825 0 0 0
4178 279 8 0 -717.0014636013207 1268.4439639110972 -1273.9805549493183 0 0 0
4270 285 10 1 -517.7727963921075 1207.5218541572908 -1219.1309862465394 0 0 0
4267 285 7 2 -456.74026096697384 1215.5318213843252 -1214.608872669987 0 0 0
4892 327 2 0 -494.12306901737924 1266.597479991204 -1204.752168033348 0 0 0
4894 327 4 0 -445.67030809297927 1274.1152916657784 -1225.3497367478442 0 0 0
4271 285 11 1 -403.6165866829995 1224.011131152901 -1208.8129540797818 0 0 0
4351 291 1 0 -2332.3609778652567 1417.7490805655414 -1237.0469458796301 0 0 0
4232 283 2 0 -1911.1930230548573 1362.1880444863116 -1253.4404522600114 0 0 0
3617 242 2 0 -86.38697761812496 -1397.3612727680506 -1137.8658921480535 0 0 0
2404 161 4 0 -2044.8235902013412 -1334.5734889301973 -1174.49105542219 0 0 0
3768 252 3 -1.5 -2000.1419491305662 -1135.7674762745567 -1192.029855348225 0 0 0
3777 252 12 0 -1954.2513172994431 -1159.2047514474393 -1192.5944276112157 0 0 0
2665 178 10 1 -152.0724620298931 -855.5652115847578 -1129.6486544406994 0 0 0
2662 178 7 2 -109.50804775081522 -833.6169188293117 -1168.8038852456602 0 0 0
5533 369 13 -0.5 -2645.520817265454 -631.4475585742597 -1130.644356330709 0 0 0
1618 108 13 -0.5 -1533.2511344643558 -611.2606491531648 -1130.4641084333678 0 0 0
920 62 5 0 -1015.2377338782145 -529.194421855761 -1194.0348254164867 0 0 0
245 17 5 0 -1270.8249770835484 -455.23671460576634 -1149.2312581052909 0 0 0
1607 108 2 0 -1113.7337129700416 -519.9163997314479 -1140.3450739809173 0 0 0
3377 226 2 0 -384.12676097156816 -195.93079529714447 -1147.4731294595886 0 0 0
3389 226 14 -1.5 -445.0692122497422 -186.43279502044908 -1131.849802269316 0 0 0
3379 226 4 0 -360.5277552926426 -200.7759272454155 -1195.9734527145015 0 0 0
3133 209 13 -0.5 -1213.6176689377617 -75.97849518394067 -1154.2657260213211 0 0 0
3123 209 3 -1.5 -1181.8184665077972 -70.60207196371455 -1126.2357595451215 0 0 0
3132 209 12 0 -1141.0871477693838 -41.6002829723646 -1128.772812376447 0 0 0
3122 209 2 0 -817.3014422549187 -38.06544773109485 -1164.7803076598977 0 0 0
5057 338 2 0 -655.679782398214 -7.057689916581547 -1161.5052816072448 0 0 0
5059 338 4 0 -609.2045082697617 -1.234652056995581 -1186.820202568032 0 0 0
3125 209 5 0 -1173.6783356971994 32.59377549834352 -1142.884041041882 0 0 0
660 44 15 0 -150.32577667958003 45.421451718015454 -1184.882269149577 0 0 0
647 44 2 0 -127.24248947583663 9.196285298672194 -1130.7859915476356 0 0 0
3128 209 8 0 -1171.2784268725313 91.14432704124317 -1191.9928734986504 0 0 0
651 44 6 -0.5 -157.7628552916932 82.73584974567748 -1175.0113581855223 0 0 0
659 44 14 -1.5 -127.7561941529518 104.03613475220175 -1149.9288931518345 0 0 0
1722 115 12 0 -432.5124873479695 289.28844891913883 -1129.8224651137757 0 0 0
5168 345 8 0 -2115.715738287933 519.8482501622801 -1147.1464615001673 0 0 0
1064 71 14 -1.5 -384.71153501674155 472.95726985578085 -1183.387919842501 0 0 0
1412 95 2 0 -1443.7435236721153 676.5634880494571 -1191.329416259009 0 0 0
1414 95 4 0 -1420.6731357249923 733.3125159928302 -1187.8488175785594 0 0 0
4690 313 10 1 -2828.6841415790186 863.0854023611644 -1195.2929831877734 0 0 0
4687 313 7 2 -2801.3180845166316 871.8386241580483 -1140.5069504888977 0 0 0
4661 311 11 1 -1181.7741912735057 978.1334765219632 -1198.9370590723913 0 0 0
4659 311 9 0 -1120.8311055383608 1005.3616019499932 -1191.6488506079388 0 0 0
4898 327 8 0 -938.9490418956859 1072.0849759331045 -1131.1727109278086 0 0 0
4895 327 5 0 -872.0417866617628 1066.2059273124019 -1162.6687518243111 0 0 0
4181 279 11 1 -596.7088240496894 1110.3066265066961 -1187.752433295778 0 0 0
4179 279 9 0 -552.7083721267085 1110.5442116348815 -1138.468134640252 0 0 0
5374 359 4 0 -250.49636877694962 1120.269434270916 -1127.6163204515603 0 0 0
4897 327 7 2 -690.9611537441567 1143.2206630562005 -1192.8190481301585 0 0 0
5639 376 14 -1.5 -650.5462004013161 1148.1452339324765 -1184.4831014788858 0 0 0
4901 327 11 1 -638.8174628990955 1155.4460908520534 -1187.299445276262 0 0 0
5375 359 5 0 -627.6295423587998 1164.166052454695 -1137.050390621314 0 0 0
4899 327 9 0 -575.6606263796259 1165.4846026888677 -1177.7157385131666 0 0 0
4896 327 6 -0.5 -522.6910611012149 1173.8350050827646 -1192.033827894898 0 0 0
4904 327 14 -1.5 -482.1853964541403 1188.8986277288216 -1179.969882863471 0 0 0
5385 359 15 0 -349.249944480608 1185.232031916923 -1178.784251428347 0 0 0
5376 359 6 -0.5 -310.5186426294542 1191.3812457640445 -1198.1650127729126 0 0 0
5372 359 2 0 -290.798126393901 1134.677633678689 -1164.2721236846041 0 0 0
5384 359 14 -1.5 -275.53256593138826 1183.0533521538919 -1171.6217894121958 0 0 0
4353 291 3 -1.5 -2278.9739849642847 1231.987621010934 -1155.755930376799 0 0 0
4233 283 3 -1.5 -2252.5220087723833 1233.9551506080822 -1185.6579718009802 0 0 0
4362 291 12 0 -2247.416563355535 1269.0338779897627 -1159.832503658077 0 0 0
4242 283 12 0 -2210.3254986078446 1254.9899785398911 -1192.2353042234051 0 0 0
4240 283 10 1 -2146.447159084268 1264.2524869844133 -1181.0100038084613 0 0 0
5640 376 15 0 -697.7821742068525 1217.6723351752241 -1180.61461398831 0 0 0
4905 327 15 0 -543.5522488839475 1223.1494986615598 -1186.1610868438422 0 0 0
4269 285 9 0 -343.0183735657068 1238.8656064154168 -1182.6213369408306 0 0 0
4275 285 15 0 -301.95738212074906 1201.4695978834704 -1125.3237927906118 0 0 0
4274 285 14 -1.5 -247.35428329621584 1244.2516322741467 -1179.7821201102174 0 0 0
4266 285 6 -0.5 -290.110680330108 1238.0000305747103 -1168.5015821479715 0 0 0
4355 291 5 0 -2290.836098996851 1330.502314714772 -1166.5018011085547 0 0 0
4360 291 10 1 -2187.3035124763023 1288.4821558595668 -1162.2888461706139 0 0 0
4357 291 7 2 -2127.262353492768 1303.4876439631794 -1160.2789922309223 0 0 0
4237 283 7 2 -2089.827848045442 1285.71740616096 -1173.1862146224655 0 0 0
4241 283 11 1 -2038.115379712034 1301.661314746035 -1170.9415738086382 0 0 0
4361 291 11 1 -2075.2573026040895 1311.746672861639 -1147.2720140180913 0 0 0
4239 283 9 0 -1977.9762739257658 1325.8986798264593 -1151.5629284900556 0 0 0
4356 291 6 -0.5 -1957.8230389029916 1286.5774615957498 -1131.607815770558 0 0 0
4359 291 9 0 -2011.9559297234537 1302.8947513443254 -1127.6323209603395 0 0 0
4245 283 15 0 -1940.7287149083998 1340.3833974262825 -1184.9266912579387 0 0 0
4364 291 14 -1.5 -1920.5585033853695 1284.0454390518132 -1156.260763259499 0 0 0
4236 283 6 -0.5 -1924.835823501417 1328.733223610947 -1151.0034795987742 0 0 0
4244 283 14 -1.5 -1885.8914922257495 1308.4165616306325 -1154.4469037446042 0 0 0
4358 291 8 0 -2320.776997049383 1374.705404765821 -1196.2964880383518 0 0 0
3619 242 4 0 -120.13173986828909 -1432.1666173484857 -1104.8535897236532 0 0 0
1156 78 1 0 -1491.044146128091 -1301.4998759075402 -1073.665026455982 0 0 0
3770 252 5 0 -1927.7050356838743 -1123.6639793357153 -1106.2698408159988 0 0 0
3773 252 8 0 -1947.5406828230025 -1090.799324130751 -1060.3475472725397 0 0 0
3766 252 1 0 -2011.4699285978754 -1049.5187546749441 -1066.821206768811 0 0 0
2668 178 13 -0.5 -270.0902844215226 -929.9496990813054 -1080.7399606404028 0 0 0
2658 178 3 -1.5 -232.5257012222739 -912.1543100630106 -1071.880303242753 0 0 0
2660 178 5 0 -261.1020504684967 -832.6553135122749 -1119.0852243629643 0 0 0
2667 178 12 0 -206.01790983753025 -878.4614875479097 -1098.7446781750205 0 0 0
2663 178 8 0 -307.28490171962585 -749.046911004255 -1109.524307994553 0 0 0
2656 178 1 0 -297.61912224793616 -696.6611013582294 -1105.7430702966706 0 0 0
5523 369 3 -1.5 -2644.375662960801 -625.9376965848153 -1087.7876888119663 0 0 0
1608 108 3 -1.5 -1498.7080625442504 -612.0774079542757 -1104.989754711437 0 0 0
5532 369 12 0 -2619.518172977987 -595.9535398156734 -1059.4601299799322 0 0 0
1617 108 12 0 -1462.0169428510187 -576.8394967278048 -1094.0798027380586 0 0 0
1615 108 10 1 -1398.5653893460462 -566.9154272997127 -1097.5294358512613 0 0 0
1612 108 7 2 -1338.2513252193116 -561.7489359369849 -1108.0522854125213 0 0 0
1616 108 11 1 -1283.480198911646 -564.7863464945432 -1110.5209837132277 0 0 0
253 17 13 -0.5 -1326.4462361207013 -531.2684983463737 -1088.9165260736943 0 0 0
243 17 3 -1.5 -1290.6010740191928 -526.6696819409074 -1065.4796107953468 0 0 0
1614 108 9 0 -1220.3414337051693 -570.9743730185835 -1101.4282348992256 0 0 0
252 17 12 0 -1243.8019127104346 -527.1735793326869 -1078.9614860977347 0 0 0
1620 108 15 0 -1172.4348677209184 -537.9383987807439 -1121.4119366447906 0 0 0
1611 108 6 -0.5 -1173.9393336617575 -575.5357658943697 -1075.7189626939105 0 0 0
1619 108 14 -1.5 -1139.2517440281586 -552.141774300105 -1059.9814681504754 0 0 0
918 62 3 -1.5 -1003.6200262026014 -598.5777643869538 -1061.1850478482997 0 0 0
927 62 12 0 -967.2861134457493 -565.4527149820391 -1074.456864997155 0 0 0
925 62 10 1 -916.3841475433542 -528.9011117856943 -1060.8058805368746 0 0 0
254 17 14 -1.5 -923.4842891842557 -570.8954107875355 -1055.0683486799699 0 0 0
250 17 10 1 -1181.5864463194628 -517.1267831591259 -1065.8406385989967 0 0 0
247 17 7 2 -1120.7514856535536 -517.5733422252631 -1057.4310370729165 0 0 0
1609 108 4 0 -1072.7968498651658 -494.16046354817763 -1121.3464782962644 0 0 0
251 17 11 1 -1066.1032140226878 -520.3403595637767 -1053.555483105862 0 0 0
930 62 15 0 -727.8338945917346 -433.5252837394096 -1054.8142343175311 0 0 0
917 62 2 0 -665.9673402032727 -413.98402976036436 -1067.3967075232413 0 0 0
919 62 4 0 -630.3296289457936 -397.41280047746983 -1108.4139903364105 0 0 0
5443 363 13 -0.5 -529.1713644145236 -256.3145739125216 -1082.2476109888385 0 0 0
5433 363 3 -1.5 -495.71828908834533 -253.89945994828776 -1055.441053397769 0 0 0
3381 226 6 -0.5 -482.46169740412023 -192.3304442140019 -1109.1519394901773 0 0 0
3384 226 9 0 -510.99737558291554 -216.99117127517923 -1070.0633240714417 0 0 0
3390 226 15 0 -443.77503088947685 -213.00627969392224 -1089.1056632116565 0 0 0
3130 209 10 1 -1089.8916331555772 -26.1604472179939 -1099.0088868096263 0 0 0
3127 209 7 2 -1035.0911660304657 -11.50209976956971 -1074.1115708841362 0 0 0
3131 209 11 1 -983.8958044706684 -0.46375551255661257 -1062.045209665219 0 0 0
3135 209 15 0 -867.8858641520646 -26.775712120225013 -1119.5007633163787 0 0 0
649 44 4 0 -101.08135392415923 -26.56110691483971 -1090.789009583229 0 0 0
3129 209 9 0 -918.5097618353038 0.17484206765420204 -1055.0402475630563 0 0 0
3126 209 6 -0.5 -864.0650244677361 13.614895595248472 -1059.4485418188417 0 0 0
5070 338 15 0 -698.0204885048897 19.13998234506659 -1108.0088892626557 0 0 0
5069 338 14 -1.5 -637.7581307669564 25.699608146086376 -1052.324318673738 0 0 0
1003 67 13 -0.5 -1088.8927561811995 180.5117368472391 -1103.669170273604 0 0 0
993 67 3 -1.5 -1100.2314421396513 204.0924760657791 -1070.4441718159574 0 0 0
1713 115 3 -1.5 -478.0684285518481 265.0203283702944 -1121.5276685491099 0 0 0
1723 115 13 -0.5 -509.44972163734013 279.26278107235004 -1095.5294502149984 0 0 0
1298 87 8 0 -1097.4407539504048 363.0135286414271 -1119.6095184782785 0 0 0
1291 87 1 0 -1066.3934750086496 316.90422129894137 -1117.1353066492784 0 0 0
1720 115 10 1 -398.1313424901049 339.8400761470022 -1118.8566153063407 0 0 0