LAMMPS data file via write_data, version 27 Jun 2024, timestep = 8320000, units = real

5730 atoms
15 atom types
5470 bonds
16 bond types
5730 angles
15 angle types

-3000 3000 xlo xhi
-1500 1500 ylo yhi
-1500 1500 zlo zhi

Masses

1 241.19
2 73.54000000000001
3 330.71
4 235.16
5 68.06999999999999
6 353.53
7 223.38
8 41.1
9 216.91
10 155.15
11 147.32
12 264.65
13 300.8
14 326.05
15 85.20999999999999

Pair Coeffs # lj/cut/coul/debye/gpu

1 0.71637 40.7505
2 0.665709 48.1397
3 1.15033 39.2216
4 0.726774 43.8077
5 0.514724 53.3428
6 1.17127 41.7847
7 1.2256 38.5601
8 0.675431 54.5696
9 1.26117 43.78
10 0.939007 42.5209
11 0.960667 41.1825
12 1.30988 48.0761
13 1.36645 37.7114
14 1.35529 39.2179
15 0.592003 47.2602

Bond Coeffs # harmonic

1 0.003 59.228
2 0.008 56.48
3 0.001 69.324
4 3.207 42.88
5 0.11 49.807
6 0.002 74.968
7 0.001 91.635
8 0.145 54.383
9 2.709 44.406
10 1.71 61.679
11 1.625 54.051
12 0.207 66.185
13 0.002 64.76
14 0.079 63.886
15 0.2 40
16 0.2 40

Angle Coeffs # harmonic

1 11.427 158.273
2 50.464 132.042
3 8.207 156.514
4 92.705 149.394
5 100 174.44
6 3.15 145.53
7 48.938 159.031
8 17.401 129.945
9 15.735 56.441
10 60 172.254
11 60.285 168.396
12 11.83 99.091
13 150 107.995
14 27.746 149.925
15 7.483 160.775

Atoms # full

1814 121 14 -1.5 -2219.359805174567 -581.4160222632561 -1460.6154413551224 0 0 0
2589 173 9 0 -1644.8011797246006 -392.1005204756424 -1459.9710763490853 0 0 1
2933 196 8 0 -2557.085217316667 -301.7183780198099 -1488.924870725728 0 0 0
965 65 5 0 -2730.2202616060904 -251.5909114656148 -1456.8949431784583 0 0 0
968 65 8 0 -2744.678999102595 -193.29237885875958 -1443.6338831173305 0 0 0
1071 72 6 -0.5 -423.8636253966242 -170.33933418536222 -1463.0654349022898 0 0 1
1074 72 9 0 -448.7360482638562 -200.33673528827916 -1498.8132716138944 0 0 1
961 65 1 0 -2773.2820605534334 -138.74720133286286 -1454.2605775078237 0 0 0
650 44 5 0 -285.43844846007454 -17.13336538136587 -1485.308804371942 0 0 0
657 44 12 0 -264.9102012207944 72.92357543180768 -1474.8150166149 0 0 0
1415 95 5 0 -1685.4770945737596 425.78859402837213 -1453.1884806416915 0 0 0
4923 329 3 -1.5 -1827.234732577921 463.6921479875594 -1474.334102360558 0 0 0
4932 329 12 0 -1834.8606249517516 510.962598500853 -1457.444580783797 0 0 0
4933 329 13 -0.5 -1792.5020883378975 452.9206995008276 -1496.7532928573467 0 0 0
1058 71 8 0 -640.2945378695493 477.6993867648631 -1456.4751055897723 0 0 0
4483 299 13 -0.5 -2256.6392260906523 936.0428775258326 -1484.0668719783932 0 0 0
4480 299 10 1 -2126.125799663407 947.6088044076076 -1486.379515131838 0 0 0
4477 299 7 2 -2070.683115365857 955.7985381501784 -1461.9433122980292 0 0 0
4481 299 11 1 -2025.2187787324308 966.3533403728751 -1436.13509868369 0 0 0
4472 299 2 0 -1899.6850137057336 1109.2940298970257 -1434.250595139343 0 0 0
4088 273 8 0 -1195.119010045661 1068.950042074422 -1448.1978899359412 0 0 0
4474 299 4 0 -1902.5499131419813 1156.7194327631503 -1440.6443756906674 0 0 0
4081 273 1 0 -1196.8976068518791 1133.0183556404843 -1490.9700588958624 0 0 0
5633 376 8 0 -1020.5832840000938 1159.6788783025502 -1466.4024656141294 0 0 0
5626 376 1 0 -1040.2795202715786 1216.8313126013702 -1494.1768301247046 0 0 0
2403 161 3 -1.5 -2375.0308045111015 1451.7941093123657 -1430.0586480478696 0 -1 0
2412 161 12 0 -2334.6490990213865 1478.2125131104021 -1427.0412682105825 0 -1 0
2410 161 10 1 -2282.556851106641 -1494.774626875643 -1394.103125086567 0 0 0
2407 161 7 2 -2237.6610920269195 -1457.8158519480405 -1373.0028567345191 0 0 0
2411 161 11 1 -2193.6039046005685 -1431.0648899275618 -1358.066826826476 0 0 0
3771 252 6 -0.5 -1730.7040902971862 -1160.9547361119742 -1379.1591754483889 0 0 0
3779 252 14 -1.5 -1716.2393289976526 -1186.8149860607837 -1412.9907422382516 0 0 0
3767 252 2 0 -1622.1358847670554 -1132.646409460544 -1366.050282724475 0 0 0
3616 242 1 0 -430.9754266745835 -1171.0657873267999 -1387.866720393364 0 0 0
3769 252 4 0 -1568.8402269087346 -1119.0642635110203 -1396.7732389679359 0 0 0
1813 121 13 -0.5 -2606.424329061246 -627.8435022701676 -1390.3506524820239 0 0 0
1803 121 3 -1.5 -2565.2285512527455 -638.7217710353998 -1382.3203595761936 0 0 0
1812 121 12 0 -2526.9408321552187 -614.243713654827 -1371.0983258402953 0 0 0
1810 121 10 1 -2464.640182990983 -609.8923726462154 -1366.4951670113599 0 0 0
1807 121 7 2 -2403.889266444169 -600.9653853666076 -1372.6401307521712 0 0 0
1811 121 11 1 -2351.1353654911964 -591.9061456684212 -1381.5829459380057 0 0 0
1809 121 9 0 -2286.882790532551 -582.9649954996346 -1392.5543699887348 0 0 0
1806 121 6 -0.5 -2243.1211768498506 -576.2638765393285 -1423.2656504373672 0 0 0
1815 121 15 0 -2243.4838429474385 -521.0224460446698 -1401.2782014227591 0 0 0
973 65 13 -0.5 -2782.487455014521 -375.11690079737036 -1372.709061787656 0 0 0
1802 121 2 0 -2207.77808153654 -429.51864483328313 -1387.5741886549624 0 0 0
2586 173 6 -0.5 -1605.3136056688445 -407.3874763864308 -1424.5479976547208 0 0 1
2594 173 14 -1.5 -1566.2693818181535 -427.52977236684944 -1420.7515023314627 0 0 1
963 65 3 -1.5 -2756.5020265003477 -350.2040823359857 -1396.657495133688 0 0 0
972 65 12 0 -2720.0648097150424 -318.60266981775476 -1379.243952088789 0 0 0
1804 121 4 0 -2185.699215240741 -373.2650598194023 -1406.8809874195772 0 0 0
2595 173 15 0 -1650.6797967729478 -366.17208576865147 -1394.5517887618148 0 0 1
2930 196 5 0 -2547.8752845017866 -254.46534998831848 -1397.9259378632728 0 0 0
2929 196 4 0 -2189.8521626166844 -179.88770787700878 -1361.5687804958682 0 0 0
2927 196 2 0 -2237.072599437387 -170.37445409510414 -1351.1037928258222 0 0 0
1079 72 14 -1.5 -419.7679623055863 -159.0643286685382 -1419.815827176964 0 0 1
655 44 10 1 -237.66710194116715 79.19457867617412 -1419.952832153896 0 0 0
652 44 7 2 -208.3104300506977 84.01122804646722 -1365.3385001462173 0 0 0
1423 95 13 -0.5 -1766.7604387891827 430.8003344580142 -1389.01480212583 0 0 0
1413 95 3 -1.5 -1732.7760933697712 421.12836944771607 -1364.6869636312467 0 0 0
1422 95 12 0 -1684.609721912802 440.9174591307106 -1373.6949502875057 0 0 0
1420 95 10 1 -1627.8277692914874 466.89843853580487 -1357.808934171706 0 0 0
1055 71 5 0 -656.4818922753489 511.0374342370831 -1386.2493894876502 0 0 0
4930 329 10 1 -1844.3616442989874 556.3826194566242 -1414.095088741927 0 0 0
4927 329 7 2 -1846.6933573696408 603.5830744029911 -1375.4810629510516 0 0 0
4479 299 9 0 -1965.554589516356 976.8334885448263 -1408.4980923761893 0 0 0
4485 299 15 0 -1926.381608684101 1040.223371455301 -1416.4091103469968 0 0 0
4476 299 6 -0.5 -1923.991549307152 996.5958286274638 -1379.869702105861 0 0 0
4085 273 5 0 -1143.7501000910036 1028.3012258256015 -1388.0570427848081 0 0 0
4261 285 1 0 -592.5310570625592 1049.0965765489423 -1382.2682289403626 0 0 0
5630 376 5 0 -974.4088123821759 1135.0444728811694 -1392.9479713449498 0 0 0
4231 283 1 0 -2259.8287754957355 1353.260388924178 -1399.8342734241182 0 0 0
2413 161 13 -0.5 -2390.802138707785 1426.0221343254755 -1400.2442189044425 0 -1 0
2409 161 9 0 -2136.5592730259805 -1403.845909008393 -1342.7172293302808 0 0 0
2415 161 15 0 -2116.684093224994 -1354.0680365801302 -1321.828858526022 0 0 0
2406 161 6 -0.5 -2085.7189950671595 -1402.05363631305 -1332.5828207024617 0 0 0
2414 161 14 -1.5 -2049.5222644097735 -1411.105735048509 -1308.5313735743944 0 0 0
3628 242 13 -0.5 -439.0169097905749 -1384.9312768804791 -1275.0940175580688 0 0 0
3618 242 3 -1.5 -397.4319666119926 -1378.530543591415 -1280.1893930485824 0 0 0
3620 242 5 0 -375.8004911511514 -1278.3954506649084 -1315.1974410333287 0 0 0
3623 242 8 0 -409.5029329053676 -1218.1088712576745 -1346.8198868387165 0 0 0
3776 252 11 1 -1804.802947677083 -1152.5420065436178 -1289.359698497322 0 0 0
3774 252 9 0 -1758.687930164137 -1153.891952203822 -1332.7434696307607 0 0 0
3780 252 15 0 -1679.751539683795 -1120.3916548402083 -1344.5003708351308 0 0 0
2670 178 15 0 -13.778425281595673 -751.2566507820057 -1275.6434658471426 0 0 0
1805 121 5 0 -2563.831680114872 -550.7550553016308 -1324.848655904224 0 0 0
916 62 1 0 -1047.5349074916955 -585.5665707542987 -1286.5800186608283 0 0 0
1808 121 8 0 -2583.708335371593 -466.5959743873017 -1306.9151205576638 0 0 0
1801 121 1 0 -2630.387157866214 -436.25655042040887 -1313.9703942682816 0 0 0
241 17 1 0 -1196.9870166012713 -410.3756912399763 -1280.717230696206 0 0 0
2582 173 2 0 -1703.6552351895389 -334.5689753107146 -1302.7160862058029 0 0 1
970 65 10 1 -2680.227602540904 -294.23580949037023 -1338.8658140253815 0 0 0
967 65 7 2 -2631.424694908109 -265.94564980114353 -1314.0892475770218 0 0 0
2928 196 3 -1.5 -2586.141525602144 -261.47198794512275 -1306.5991226536123 0 0 0
2938 196 13 -0.5 -2607.467352277835 -297.13367562385514 -1316.8101415204924 0 0 0
971 65 11 1 -2584.1404687854692 -246.80384076843086 -1297.3969386398376 0 0 0
2937 196 12 0 -2540.324512658755 -246.5466915791016 -1320.943192690701 0 0 0
2935 196 10 1 -2494.17593864151 -200.43655133283107 -1310.1328682073797 0 0 0
966 65 6 -0.5 -2482.994920602578 -191.40130350566048 -1287.8969897283619 0 0 0
969 65 9 0 -2532.3377306732395 -210.8573265717169 -1282.3034643986193 0 0 0
2932 196 7 2 -2443.1691355126654 -165.83017271923325 -1311.6153352949564 0 0 0
974 65 14 -1.5 -2451.688436771489 -163.22210116219043 -1275.015773599809 0 0 0
2936 196 11 1 -2397.392459752453 -137.97213850074456 -1321.2012607431582 0 0 0
2934 196 9 0 -2335.6207227463897 -113.31658830619716 -1318.7204832051118 0 0 0
2940 196 15 0 -2284.569740759436 -129.9921780789331 -1342.1794648938774 0 0 0
2931 196 6 -0.5 -2282.820501834961 -109.77053256495603 -1303.0696931041368 0 0 0
2939 196 14 -1.5 -2245.044483252893 -131.86602220002663 -1294.0294874503693 0 0 0
3121 209 1 0 -1184.6153454171817 43.04443707642913 -1322.082631542401 0 0 0
3128 209 8 0 -1112.9324068249657 26.584041159181222 -1299.320776238035 0 0 0
656 44 11 1 -189.4861125867382 90.63596040021741 -1315.441820773351 0 0 0
1718 115 8 0 -465.3465937370291 221.36630240513918 -1286.3108956209114 0 0 0
1711 115 1 0 -419.24468899583127 196.80756471064933 -1336.3519355367034 0 0 0
1417 95 7 2 -1577.5268359191953 497.407100715784 -1339.612783494633 0 0 0
1421 95 11 1 -1529.7787418154983 518.5699496709029 -1326.0534272705222 0 0 0
1063 71 13 -0.5 -754.6823559669474 512.3390123783564 -1311.7747559948489 0 0 0
1419 95 9 0 -1482.2265882017973 552.0328839372986 -1295.3991629307857 0 0 0
1416 95 6 -0.5 -1438.3009525978248 583.2246461272508 -1292.1458933810707 0 0 0
1053 71 3 -1.5 -728.1153572589144 544.8878849826782 -1302.525637760495 0 0 0
1062 71 12 0 -676.9714622284083 545.550827806473 -1296.631729230117 0 0 0
4931 329 11 1 -1843.7326491848075 639.60985031748 -1336.1380166370745 0 0 0
1425 95 15 0 -1477.5131307649265 612.1792866014158 -1286.4568823835702 0 0 0
1424 95 14 -1.5 -1421.2443765412497 621.2699685410424 -1276.4913960391361 0 0 0
4929 329 9 0 -1845.61939134084 691.3715912615359 -1293.4151879057024 0 0 0
1414 95 4 0 -1466.9744975667804 728.3105207340351 -1288.2602369279757 0 0 0
1412 95 2 0 -1479.0916025461465 681.2336821319016 -1288.3311790412683 0 0 0
4693 313 13 -0.5 -2856.6828037312875 848.0483646814704 -1322.5290621081915 0 0 0
4683 313 3 -1.5 -2841.668465741381 836.7997343274794 -1284.0760239713338 0 0 0
4484 299 14 -1.5 -1907.8570190456157 1012.2843388987322 -1341.3837689938455 0 0 0
4655 311 5 0 -1359.4461820931829 1017.0712145060085 -1290.573583124591 0 0 0
4092 273 12 0 -1102.7175922714694 1020.5812584909096 -1275.9696031708506 0 0 0
5638 376 13 -0.5 -1013.9595992719677 1045.035350644085 -1290.948031999435 0 0 0
4658 311 8 0 -1374.8983610268817 1107.7427921352096 -1283.4627119150052 0 0 0
5628 376 3 -1.5 -975.3083201937276 1056.2708345054425 -1306.3318927062655 0 0 0
4654 311 4 0 -1006.2155963743901 1106.5303536293702 -1311.6290153249852 0 0 0
5637 376 12 0 -953.355515342305 1098.0770998114929 -1298.9278790941542 0 0 0
4268 285 8 0 -592.9542323620765 1092.6863063771968 -1314.5224087318647 0 0 0
4651 311 1 0 -1429.180871566132 1152.1624129043971 -1293.6100697670433 0 0 0
4893 327 3 -1.5 -837.7965874694249 1134.9280008969113 -1277.3259270850551 0 0 0
4903 327 13 -0.5 -880.794139931073 1139.1803402373102 -1278.7723960333042 0 0 0
4175 279 5 0 -740.6206317285499 1262.946251328294 -1288.2307937769735 0 0 0
4238 283 8 0 -2244.9587680012733 1339.1742650935007 -1339.897577233964 0 0 0
4234 283 4 0 -1889.6896514137386 1287.1288252904378 -1311.5957014058824 0 0 0
4178 279 8 0 -720.8759465126872 1303.3458427495686 -1304.4386148888566 0 0 0
4171 279 1 0 -703.9243219715361 1330.336645397324 -1344.6435955795268 0 0 0
2402 161 2 0 -2101.2934088771976 -1287.8382841035673 -1264.3355668929 0 0 0
3627 242 12 0 -369.06824453235726 -1345.3529696565645 -1267.9723997501171 0 0 0
3625 242 10 1 -307.04929138288566 -1340.5946650129038 -1246.2783957870167 0 0 0
3622 242 7 2 -251.52716750007747 -1330.3118304763816 -1222.4216125181656 0 0 0
3626 242 11 1 -200.14615725272498 -1320.1813078883972 -1209.951272307953 0 0 0
3621 242 6 -0.5 -80.68881046582878 -1313.9527334280249 -1214.9705800293962 0 0 0
3624 242 9 0 -136.68143367874288 -1305.5082471099354 -1213.719392375488 0 0 0
3629 242 14 -1.5 -41.50737314336835 -1294.5291178608877 -1217.220763950383 0 0 0
2404 161 4 0 -2083.158102948229 -1259.5918559364377 -1215.4067116951776 0 0 0
3775 252 10 1 -1886.994114310312 -1170.7476962447815 -1211.1185607893626 0 0 0
3772 252 7 2 -1843.6501738253357 -1163.2002332242012 -1253.0744519595007 0 0 0
2664 178 9 0 -37.95904855095194 -809.4972487346156 -1251.2914195921 0 0 0
2657 178 2 0 -1.2863470667811412 -697.582054983488 -1255.3431168547256 0 0 0
923 62 8 0 -1007.1089252060056 -573.9203417739762 -1274.215392568154 0 0 0
920 62 5 0 -983.4534515127618 -556.2513760506092 -1229.911333172853 0 0 0
248 17 8 0 -1234.5403613154476 -381.8336846172958 -1242.2721070306698 0 0 0
2584 173 4 0 -1713.2936148552258 -306.63033109871407 -1255.0381606857052 0 0 1
975 65 15 0 -2498.9393447928155 -208.06327656779413 -1236.7432701761363 0 0 0
962 65 2 0 -2422.753133558238 -171.22997185039435 -1217.830320602845 0 0 0
964 65 4 0 -2357.041639032752 -156.95812198986565 -1238.986586291876 0 0 0
5059 338 4 0 -675.4329480112772 -13.887464697196016 -1221.532345573843 0 0 0
3125 209 5 0 -1111.976260356689 10.570005703640135 -1222.3929143743178 0 0 0
651 44 6 -0.5 -138.43996341344314 69.86404968438279 -1211.1380704884261 0 0 0
654 44 9 0 -171.92528201654545 80.25720958299873 -1252.8756572271934 0 0 0
1715 115 5 0 -445.76574553661146 247.17953809555098 -1227.6032252038567 0 0 0
1052 71 2 0 -334.288133646549 424.7369139139993 -1219.7708735107537 0 0 0
1054 71 4 0 -268.2781508658602 407.8074796337267 -1238.9359486854128 0 0 0
1061 71 11 1 -514.4005069301178 515.7575313630408 -1228.6198472351775 0 0 0
1059 71 9 0 -449.89668275122625 509.00583635449647 -1210.0024640463796 0 0 0
1056 71 6 -0.5 -397.50306039997344 511.29927444431183 -1210.148359573233 0 0 0
1065 71 15 0 -409.2050065980155 462.4989174386622 -1201.408030953496 0 0 0
1060 71 10 1 -619.2760650504514 543.661649321621 -1269.0133935876522 0 0 0
1057 71 7 2 -562.0256742564446 533.5480550495779 -1246.9552490775836 0 0 0
4935 329 15 0 -1902.5789894122468 720.9214218791861 -1262.0571223422585 0 0 0
4926 329 6 -0.5 -1847.744443181175 716.5158160556146 -1246.0630887757013 0 0 0
4934 329 14 -1.5 -1864.254855963077 749.7307069296094 -1222.2499168498216 0 0 0
4922 329 2 0 -1958.9678424692117 768.79262953991 -1221.677976630227 0 0 0
4685 313 5 0 -2957.818891586073 862.4000757965385 -1223.7210499653634 0 0 0
4692 313 12 0 -2841.108571323096 861.9984658821743 -1239.7637270330047 0 0 0
4663 311 13 -0.5 -1392.6857169333923 896.9344446265368 -1255.567987296826 0 0 0
4653 311 3 -1.5 -1385.4078731068576 938.6519155259891 -1259.4854998294331 0 0 0
4662 311 12 0 -1340.6293504116256 960.7520332602085 -1261.753182922114 0 0 0
4660 311 10 1 -1276.6463366928563 964.6959838164115 -1251.6162483397316 0 0 0
4657 311 7 2 -1217.3598920066022 978.2142748886974 -1241.2168654753689 0 0 0
4661 311 11 1 -1165.478564123272 985.4624405012323 -1229.1032091144086 0 0 0
4083 273 3 -1.5 -1147.7030512694107 1011.3827811664281 -1252.8519374881876 0 0 0
4093 273 13 -0.5 -1182.7494098864029 988.4263307256311 -1260.2555140288898 0 0 0
4659 311 9 0 -1100.8998482795525 1008.2982616506109 -1219.6891575438417 0 0 0
4090 273 10 1 -1046.3422468424367 1035.8259276447586 -1272.9823845992441 0 0 0
4656 311 6 -0.5 -1048.945619064444 1018.7966383675932 -1233.1729095989083 0 0 0
4664 311 14 -1.5 -1019.4532102120132 1035.17645437506 -1262.088764485995 0 0 0
4665 311 15 0 -1076.1710262370727 1060.492162644714 -1245.5244784216572 0 0 0
4652 311 2 0 -1035.5864651738393 1099.4216473902068 -1266.7449725417737 0 0 0
4087 273 7 2 -991.4058568350637 1060.8296045567677 -1261.1037304801569 0 0 0
4091 273 11 1 -942.2173517599848 1081.3055423472015 -1255.9980975323576 0 0 0
4089 273 9 0 -886.5960156364087 1111.6244806063398 -1231.1562421422418 0 0 0
5635 376 10 1 -903.8119486041173 1130.9353599449096 -1274.8185241943993 0 0 0
5632 376 7 2 -851.5443616378128 1156.652317836697 -1257.203409065385 0 0 0
4086 273 6 -0.5 -845.2285044848641 1149.0747528114696 -1227.4747958801227 0 0 0
4183 279 13 -0.5 -839.758046997335 1161.478109872661 -1218.9067273070436 0 0 0
4094 273 14 -1.5 -818.0104333491377 1174.2434565620213 -1251.4646973255494 0 0 0
4902 327 12 0 -804.1535242528163 1127.4527259187223 -1241.160697406857 0 0 0
4182 279 12 0 -762.6798973966157 1170.4884192218012 -1256.0536270189834 0 0 0
4173 279 3 -1.5 -809.329431077489 1183.2780838512185 -1239.2301244237512 0 0 0
5636 376 11 1 -806.4360731177197 1177.7030021894184 -1235.7285668950647 0 0 0
4900 327 10 1 -749.8002022961248 1139.7347099847404 -1211.6993497003352 0 0 0
4180 279 10 1 -710.4398139329121 1146.6772317254026 -1233.7683405281866 0 0 0
5634 376 9 0 -746.2447985428529 1190.2095564998701 -1215.863679520035 0 0 0
5383 359 13 -0.5 -686.8784166672488 1183.3585351539534 -1225.4088707470723 0 0 0
5631 376 6 -0.5 -692.4012996862784 1185.4191582222456 -1209.4494822953955 0 0 0
4177 279 7 2 -652.0691807584523 1134.5689819055006 -1218.6098319360233 0 0 0
5373 359 3 -1.5 -648.6978834239782 1173.7380246192563 -1242.5181137805637 0 0 0
5382 359 12 0 -605.0822615694043 1170.343309050637 -1221.6629395411296 0 0 0
4265 285 5 0 -597.6128750630455 1160.072346586611 -1274.4564364298847 0 0 0
5380 359 10 1 -541.5920445333879 1176.562347494939 -1222.5858569390673 0 0 0
5377 359 7 2 -479.6084087756713 1173.7198988168097 -1222.0934282002895 0 0 0
5381 359 11 1 -424.9250618281178 1171.9758915505047 -1226.4467513356399 0 0 0
5379 359 9 0 -358.2945874972498 1176.263712084908 -1222.845994403725 0 0 0
5376 359 6 -0.5 -312.49789447077137 1185.0932797948133 -1240.1396639652294 0 0 0
4273 285 13 -0.5 -660.7657380581848 1223.22348613811 -1203.8569029812966 0 0 0
4272 285 12 0 -575.046514975343 1208.6130690743453 -1216.6300654876839 0 0 0
4270 285 10 1 -514.1375349482439 1209.949373031138 -1216.3157960880555 0 0 0
4267 285 7 2 -453.1735290594022 1203.9630555957551 -1212.5916856272104 0 0 0
4271 285 11 1 -399.38539210536857 1207.6653549428129 -1213.128160484132 0 0 0
4269 285 9 0 -336.44253037453876 1223.0064587434717 -1205.1342390953305 0 0 0
5384 359 14 -1.5 -289.41360005947723 1216.6644058896513 -1260.2663784209383 0 0 0
4266 285 6 -0.5 -281.83467080312425 1219.834381285772 -1206.2579939825696 0 0 0
4274 285 14 -1.5 -242.9537917756717 1241.18016418976 -1206.8687847437393 0 0 0
4235 283 5 0 -2222.5745590743477 1295.4966233181524 -1267.625920983818 0 0 0
4232 283 2 0 -1893.6116447312513 1322.230522572223 -1270.4817087622382 0 0 0
3619 242 4 0 -91.55377304871864 -1462.2727792907494 -1158.265366162782 0 0 0
3630 242 15 0 -98.7840960302056 -1375.322562947785 -1197.4476027556336 0 0 0
3617 242 2 0 -80.90996176815489 -1415.579106528993 -1182.5923824414424 0 0 0
3778 252 13 -0.5 -2021.6263443762641 -1148.4094924888966 -1189.4460917191375 0 0 0
3768 252 3 -1.5 -1990.2896448307974 -1173.5018705027098 -1174.0636298117515 0 0 0
3777 252 12 0 -1940.2477524409733 -1168.3050025315388 -1171.788608573744 0 0 0
3770 252 5 0 -1952.0355423508777 -1076.86166567433 -1143.5509950129697 0 0 0
2662 178 7 2 -108.75535206067458 -844.8759229546919 -1159.7180473237097 0 0 0
2666 178 11 1 -74.81405973356951 -825.4742607910786 -1196.8723455456382 0 0 0
5533 369 13 -0.5 -2663.326312157947 -613.856705768324 -1151.5187237347131 0 0 0
5523 369 3 -1.5 -2627.8906284147674 -622.8217396790242 -1130.23010680016 0 0 0
1608 108 3 -1.5 -1505.628022327696 -583.3344577600632 -1132.446354351986 0 0 0
1618 108 13 -0.5 -1532.4356054302282 -570.3887853566179 -1163.9140510341035 0 0 0
253 17 13 -0.5 -1315.7458660741559 -544.3923399268034 -1136.81436409029 0 0 0
245 17 5 0 -1251.9864682856619 -414.7285085821323 -1191.8718125505554 0 0 0
917 62 2 0 -658.1428465313103 -394.85974407937334 -1131.2644528951757 0 0 0
919 62 4 0 -621.6839255602911 -372.9029324355227 -1179.613370421929 0 0 0
3381 226 6 -0.5 -486.00699172430035 -226.98810525316225 -1143.257365282604 0 0 0
3389 226 14 -1.5 -442.3411204581894 -222.89947677626276 -1148.9014028780516 0 0 0
3133 209 13 -0.5 -1202.9116092521745 -44.36480825410312 -1159.5051205709397 0 0 0
3123 209 3 -1.5 -1185.1290826548711 -23.292126090523933 -1126.9295555784988 0 0 0
3124 209 4 0 -779.2796841225196 -13.048656032297455 -1196.3726151933026 0 0 0
3122 209 2 0 -815.008671489595 -23.011153488273493 -1161.3727644632538 0 0 0
647 44 2 0 -182.62048977255685 -9.862845694758859 -1162.6476857876137 0 0 0
5057 338 2 0 -699.4363568366063 16.671085831601758 -1181.5592145454711 0 0 0
660 44 15 0 -195.70219858807081 29.465203218024936 -1191.697238875993 0 0 0
659 44 14 -1.5 -120.31840482577223 43.06475328351959 -1180.0477663423605 0 0 0
1722 115 12 0 -399.1178498840749 257.64003736062006 -1127.5528841276441 0 0 0
1720 115 10 1 -363.877987475444 313.9308890584022 -1132.6615649701425 0 0 0
1291 87 1 0 -1077.3069339757515 403.57231674756275 -1170.2224187225584 0 0 0
5161 345 1 0 -2035.4088532535573 519.5110347178113 -1150.527034700427 0 0 0
1064 71 14 -1.5 -358.1455160185642 496.51118643293927 -1195.0433859656976 0 0 0
4924 329 4 0 -1974.4379694007596 797.1238426710006 -1189.4535507223832 0 0 0
4690 313 10 1 -2812.955192792956 879.7724461971818 -1184.7596648297254 0 0 0
4687 313 7 2 -2786.5848157649607 887.3373807544002 -1129.692551520314 0 0 0
4095 273 15 0 -828.3401070256008 1098.9780139419067 -1197.68570364065 0 0 0
4895 327 5 0 -886.2294185202483 1118.4560273399136 -1150.2932186482865 0 0 0
4082 273 2 0 -789.8098956103773 1074.1262125038659 -1186.321163468867 0 0 0
4084 273 4 0 -738.3998848202548 1077.7405709949485 -1178.3032484290477 0 0 0
4181 279 11 1 -602.9054959746344 1122.896502378316 -1199.5972888458293 0 0 0
4897 327 7 2 -691.6597402816747 1153.9622784532698 -1196.3961586007365 0 0 0
5640 376 15 0 -718.7624533413913 1173.6773410013489 -1161.6074868459839 0 0 0
5639 376 14 -1.5 -658.7894879531106 1171.9374005871227 -1183.3925612010235 0 0 0
4901 327 11 1 -639.4462758753838 1162.0393391757625 -1184.3286367090009 0 0 0
5375 359 5 0 -625.1953070242581 1157.7380119926383 -1139.5698330871232 0 0 0
4179 279 9 0 -541.1645417751675 1126.6257414589907 -1181.513411406733 0 0 0
4899 327 9 0 -576.2563816146292 1165.8189418851912 -1181.8001532749577 0 0 0
4905 327 15 0 -534.8172691150404 1199.7778331876937 -1169.291515884596 0 0 0
4896 327 6 -0.5 -524.8789123188551 1169.0991658579628 -1195.340579259797 0 0 0
4904 327 14 -1.5 -484.3148637287513 1182.0214885700607 -1182.9982812184433 0 0 0
4176 279 6 -0.5 -494.12071502258374 1146.5249378837711 -1169.3462831026848 0 0 0
4184 279 14 -1.5 -464.7024409144534 1160.404158138642 -1138.9081840447043 0 0 0
4185 279 15 0 -518.5839434870777 1136.1502989824767 -1129.2195972081374 0 0 0
5385 359 15 0 -306.4968196773372 1162.5199098792536 -1171.4796432149938 0 0 0
4243 283 13 -0.5 -2270.538586913948 1217.013570634475 -1169.3834005660647 0 0 0
4353 291 3 -1.5 -2270.606170003354 1220.7192330668154 -1125.263941158054 0 0 0
4233 283 3 -1.5 -2236.013423596267 1210.453631720465 -1193.8762573450672 0 0 0
4242 283 12 0 -2195.507554203768 1242.1842921625903 -1199.1300685252386 0 0 0
4362 291 12 0 -2230.291654902885 1237.9568139933472 -1149.2289648561432 0 0 0
4240 283 10 1 -2135.224400743107 1263.839899333775 -1182.8160145171678 0 0 0
4360 291 10 1 -2164.9181647495557 1242.8079076802087 -1152.609447381826 0 0 0
4357 291 7 2 -2102.790464847876 1250.8191112679017 -1153.576965261265 0 0 0
4361 291 11 1 -2049.7420425596106 1262.3250025913476 -1149.4124580574717 0 0 0
4263 285 3 -1.5 -621.3359803877153 1209.1864561184318 -1193.6952407603778 0 0 0
4892 327 2 0 -501.64424752711506 1237.9055994075973 -1161.9257637125306 0 0 0
4275 285 15 0 -299.04599026375905 1217.6111165394918 -1136.9743001920058 0 0 0
4355 291 5 0 -2258.442149265935 1301.165091241351 -1168.3754423144776 0 0 0
4237 283 7 2 -2078.1115745222723 1284.647245712035 -1174.8038284620477 0 0 0
4241 283 11 1 -2027.7568138407476 1299.5520639490169 -1161.0139264940747 0 0 0
4359 291 9 0 -1983.693646703801 1281.3802609879006 -1155.9995255635035 0 0 0
4239 283 9 0 -1971.4764230823348 1334.1784457693464 -1152.8241662029995 0 0 0
4356 291 6 -0.5 -1941.1359858682788 1301.182729474277 -1175.058058435455 0 0 0
4364 291 14 -1.5 -1901.1624907750454 1318.0356547488961 -1166.0570281323503 0 0 0
4236 283 6 -0.5 -1920.4803925253818 1339.9442627357355 -1134.167949437036 0 0 0
4244 283 14 -1.5 -1876.655827649245 1341.371716483565 -1144.309653525147 0 0 0
4894 327 4 0 -474.6076720179297 1289.7390129153791 -1152.8436745353388 0 0 0
4358 291 8 0 -2253.50094600813 1400.9327306440873 -1178.722472958057 0 0 0
4245 283 15 0 -1936.8047715852206 1350.7181124191568 -1187.6967667789027 0 0 0
4351 291 1 0 -2234.4371354456234 1462.1286595530828 -1162.7488074944838 0 0 0
1156 78 1 0 -1533.7070931946585 -1346.286949830007 -1110.81232363622 0 0 0
1163 78 8 0 -1531.9056865702412 -1327.0281506387641 -1062.442415778204 0 0 0
3766 252 1 0 -2005.0769448616074 -977.5830329839845 -1054.3423262826957 0 0 0
3773 252 8 0 -1948.9975375514373 -1007.0909553276662 -1093.7335077850814 0 0 0
2668 178 13 -0.5 -228.5991593497845 -960.3424312982672 -1061.3449732797105 0 0 0
2667 178 12 0 -192.19235982573068 -884.1506334648674 -1073.5092871948 0 0 0
2665 178 10 1 -146.42488251979958 -860.0385052735876 -1113.2319320968022 0 0 0
5532 369 12 0 -2598.8920999327192 -600.57366272922 -1094.9623183632086 0 0 0
5530 369 10 1 -2542.546866589941 -567.0287809179979 -1086.7175971697072 0 0 0
5527 369 7 2 -2494.146710301748 -532.36266666 -1067.3100641925575 0 0 0
1617 108 12 0 -1467.5399846229282 -556.937078752822 -1110.4177796703736 0 0 0
1615 108 10 1 -1402.9817704010609 -548.0419162723266 -1103.271657364728 0 0 0
1612 108 7 2 -1343.7270718662348 -533.5846209598847 -1109.3444598014414 0 0 0
1616 108 11 1 -1289.7970221457388 -529.7512518929223 -1108.4681534070407 0 0 0
1614 108 9 0 -1228.872097331312 -526.6444307660473 -1084.0431199728102 0 0 0
1620 108 15 0 -1177.3955940349038 -544.6527239226456 -1108.0779512651598 0 0 0
1607 108 2 0 -1105.0868531821584 -541.1126510310075 -1100.0066470991 0 0 0
1609 108 4 0 -1046.4712796616245 -542.1402805957492 -1072.9055883278968 0 0 0
918 62 3 -1.5 -995.077166396239 -565.3275111274571 -1067.8065298886913 0 0 0
927 62 12 0 -960.4375983962689 -539.909188075836 -1090.3513156504096 0 0 0
1610 108 5 0 -1526.568569656589 -461.5326408744221 -1066.1559256052883 0 0 0
243 17 3 -1.5 -1300.3126798930507 -509.2506598765826 -1118.2180066909264 0 0 0
252 17 12 0 -1254.33769291326 -490.7563436403536 -1116.805151537629 0 0 0
250 17 10 1 -1192.271587726922 -494.8713705464898 -1091.3131129757746 0 0 0
247 17 7 2 -1135.8557123723522 -504.67050617130735 -1068.086228966599 0 0 0
251 17 11 1 -1084.4000689751654 -508.04920310938775 -1053.9402329560728 0 0 0
925 62 10 1 -898.7048204300022 -519.0991183714636 -1081.3039232033932 0 0 0
922 62 7 2 -843.4644288292513 -504.5002576640018 -1059.2538223587335 0 0 0
1613 108 8 0 -1549.2604206877033 -398.86977248450955 -1053.021560349136 0 0 0
930 62 15 0 -707.9424876640245 -408.2118191649537 -1057.9338484655314 0 0 0
3384 226 9 0 -526.8996453869751 -241.83384432784007 -1105.5049856675607 0 0 0
3386 226 11 1 -577.6649964965347 -275.59994076872624 -1075.3001627155522 0 0 0
5443 363 13 -0.5 -525.2825716798349 -236.5478088591973 -1054.3211966124354 0 0 0
3390 226 15 0 -452.20981093001717 -242.73874136608538 -1095.6745850790344 0 0 0
3377 226 2 0 -407.56786120570547 -267.66557700278764 -1116.0487809549006 0 0 0
3379 226 4 0 -357.1859988470165 -299.20975190214494 -1116.6795630321667 0 0 0
3132 209 12 0 -1136.4973491351473 -16.429192287377283 -1121.1781453960793 0 0 0
3130 209 10 1 -1083.8245804103165 -32.18073346801001 -1094.2330550320871 0 0 0
5068 338 13 -0.5 -1053.6596128279864 -61.09883518408447 -1054.6205582883817 0 0 0
3127 209 7 2 -1025.5344861876445 -39.87292184776684 -1074.5872477004132 0 0 0
3131 209 11 1 -972.4679701607023 -42.08764150192968 -1062.6115971572087 0 0 0
3129 209 9 0 -908.8606314730528 -28.647671222078692 -1055.5513633857431 0 0 0
3135 209 15 0 -868.9822081904496 -4.472935503758138 -1112.1369680852176 0 0 0
649 44 4 0 -163.73297000407402 -36.518415755142726 -1122.0820564886324 0 0 0
5070 338 15 0 -728.0523758686086 37.25276990362134 -1102.1627290038425 0 0 0
993 67 3 -1.5 -1126.2611318845522 179.93677456033203 -1082.1226155134161 0 0 0
1003 67 13 -0.5 -1103.3989161245295 169.1544589187008 -1116.8476042134985 0 0 0
1723 115 13 -0.5 -384.66374963227224 183.4330446842219 -1084.9764496394337 0 0 0
1713 115 3 -1.5 -408.9207401886783 214.49264339009972 -1101.8834451312473 0 0 0
2386 160 1 0 -815.5053570215578 370.2569590048614 -1057.9459510834706 0 0 0
1717 115 7 2 -328.0260047715895 364.6968887849247 -1124.4648552542926 0 0 0
1721 115 11 1 -298.31885968969084 409.1473100440392 -1116.187542229287 0 0 0
5168 345 8 0 -2048.0724303726556 524.5162418502099 -1120.4824588321333 0 0 0
1298 87 8 0 -1083.0422084224365 458.4267113243971 -1118.6181246235737 0 0 0
1295 87 5 0 -1090.0215706514625 486.7704761337758 -1052.2875987807615 0 0 0