LAMMPS data file via write_data, version 27 Jun 2024, timestep = 13120000, units = real

5730 atoms
15 atom types
5518 bonds
16 bond types
5730 angles
15 angle types

-3000 3000 xlo xhi
-1500 1500 ylo yhi
-1500 1500 zlo zhi

Masses

1 241.19
2 73.54000000000001
3 330.71
4 235.16
5 68.06999999999999
6 353.53
7 223.38
8 41.1
9 216.91
10 155.15
11 147.32
12 264.65
13 300.8
14 326.05
15 85.20999999999999

Pair Coeffs # lj/cut/coul/debye/gpu

1 0.71637 40.7505
2 0.665709 48.1397
3 1.15033 39.2216
4 0.726774 43.8077
5 0.514724 53.3428
6 1.17127 41.7847
7 1.2256 38.5601
8 0.675431 54.5696
9 1.26117 43.78
10 0.939007 42.5209
11 0.960667 41.1825
12 1.30988 48.0761
13 1.36645 37.7114
14 1.35529 39.2179
15 0.592003 47.2602

Bond Coeffs # harmonic

1 0.003 59.228
2 0.008 56.48
3 0.001 69.324
4 3.207 42.88
5 0.11 49.807
6 0.002 74.968
7 0.001 91.635
8 0.145 54.383
9 2.709 44.406
10 1.71 61.679
11 1.625 54.051
12 0.207 66.185
13 0.002 64.76
14 0.079 63.886
15 0.2 40
16 0.2 40

Angle Coeffs # harmonic

1 11.427 158.273
2 50.464 132.042
3 8.207 156.514
4 92.705 149.394
5 100 174.44
6 3.15 145.53
7 48.938 159.031
8 17.401 129.945
9 15.735 56.441
10 60 172.254
11 60.285 168.396
12 11.83 99.091
13 150 107.995
14 27.746 149.925
15 7.483 160.775

Atoms # full

2410 161 10 1 -2245.699363827782 -1487.033262209075 -1480.977503492368 0 0 0
2554 171 4 0 -1150.8688903977811 -1399.9171952499707 -1498.1787031441183 0 0 1
3616 242 1 0 -314.14510146239 -1323.1603621649865 -1435.7920653854628 0 0 0
3771 252 6 -0.5 -1737.8232859303953 -1218.944720079773 -1428.9183295327957 0 0 0
3780 252 15 0 -1752.797683894143 -1200.385763950661 -1471.0300934648074 0 0 0
3779 252 14 -1.5 -1713.6304548575465 -1234.9875093002693 -1462.3244356918049 0 0 0
2553 171 3 -1.5 -1542.5358720853596 -1254.1889526757966 -1491.7973251679514 0 0 1
2556 171 6 -0.5 -1214.2362956873646 -1267.77251955485 -1499.7363029477735 0 0 1
2564 171 14 -1.5 -1173.661000689898 -1249.02213396341 -1495.6487274245935 0 0 1
2926 196 1 0 -2513.762526018455 -483.8090138103895 -1444.98801715478 0 0 0
2582 173 2 0 -1710.863767566688 -400.6777386946222 -1440.3100590410402 0 0 1
646 44 1 0 -356.7414108381692 -235.08139533737227 -1469.761971047499 0 0 0
1079 72 14 -1.5 -330.0465016372932 -162.28838692852466 -1471.6635058243264 0 0 1
653 44 8 0 -310.0110996761863 -218.13029871629365 -1466.451164370498 0 0 0
1071 72 6 -0.5 -341.4792100670587 -195.06936870383825 -1499.65645214533 0 0 1
650 44 5 0 -293.6469344401318 -137.5408629989548 -1455.9411880014056 0 0 0
648 44 3 -1.5 -260.5655781817879 -18.28952638937261 -1436.835990917755 0 0 0
658 44 13 -0.5 -271.23627775192193 22.335001548546444 -1445.5386424634019 0 0 0
4928 329 8 0 -1866.2759601210792 310.75977290457786 -1443.8859919806853 0 0 0
4925 329 5 0 -1854.2306148944347 371.66877680038317 -1477.389768676019 0 0 0
4930 329 10 1 -1909.7176654550283 504.98779922651784 -1470.016665565904 0 0 0
1413 95 3 -1.5 -1613.6970610423273 510.27463352182235 -1431.7159827576427 0 0 0
1411 95 1 0 -1803.5225374526913 645.1412964344114 -1448.8390769962434 0 0 0
1418 95 8 0 -1749.0692394249968 658.8450665118904 -1481.2840751364122 0 0 0
1415 95 5 0 -1686.4876134043577 600.2014263605593 -1469.3284563658935 0 0 0
4473 299 3 -1.5 -2121.600421692864 964.1502108959863 -1496.2261220684159 0 0 0
1409 94 14 -1.5 -2097.309177344058 943.4378316451936 -1461.1599248067632 0 0 1
4088 273 8 0 -1051.1790098871195 974.1132170675215 -1486.4650715820196 0 0 0
4480 299 10 1 -2012.3974673976256 982.0430045832586 -1478.8232931914529 0 0 0
4477 299 7 2 -1958.2010370089668 996.7613198098176 -1453.4009132687002 0 0 0
4481 299 11 1 -1911.6176759986213 1015.7643533701715 -1433.2497970690206 0 0 0
2407 161 7 2 -2230.0764598700803 -1479.4363765309183 -1422.0073541499996 0 0 0
2411 161 11 1 -2214.1569247087828 -1477.0505820801466 -1370.7165328440485 0 0 0
3623 242 8 0 -305.4986686993749 -1292.3353803366635 -1381.5487871904886 0 0 0
3776 252 11 1 -1819.892298579564 -1144.0557605700346 -1392.8149333814524 0 0 0
3774 252 9 0 -1784.3319987681284 -1196.6044662219722 -1412.7927149410168 0 0 0
3775 252 10 1 -1898.505135939508 -1064.9164790687303 -1361.4211008037237 0 0 0
3772 252 7 2 -1855.8067815918102 -1104.9362242922289 -1380.1668706887342 0 0 0
3778 252 13 -0.5 -2002.5652982978143 -964.7821882066162 -1360.4922387095176 0 0 0
1809 121 9 0 -2449.266169880184 -680.2432186367852 -1382.5639789355748 0 0 0
1806 121 6 -0.5 -2403.448214414678 -700.2911007706871 -1403.7792122979515 0 0 0
1815 121 15 0 -2402.3961406522462 -675.0903139906519 -1375.6114644306665 0 0 0
1814 121 14 -1.5 -2358.9985824000837 -705.1230198138338 -1404.2167929538093 0 0 0
1804 121 4 0 -2273.137376640933 -734.7820047328591 -1386.2040638630342 0 0 0
1802 121 2 0 -2315.7618534924854 -694.6298190148894 -1378.8922039169713 0 0 0
1811 121 11 1 -2493.9953143640387 -633.7348998269835 -1370.3971995197578 0 0 0
1810 121 10 1 -2558.0381627623237 -538.036701985827 -1380.2472508545816 0 0 0
1807 121 7 2 -2522.3628640644492 -587.3457278222944 -1372.3710956843536 0 0 0
1812 121 12 0 -2593.984195894548 -485.4225678011685 -1377.0534105074196 0 0 0
2933 196 8 0 -2520.7979521515945 -496.83667692487836 -1400.6259146054367 0 0 0
241 17 1 0 -1254.2275122331807 -489.3676578132669 -1381.1008662808026 0 0 0
1803 121 3 -1.5 -2588.7085354295086 -435.60324040697026 -1371.8785627982877 0 0 0
1813 121 13 -0.5 -2617.479917068746 -410.7731198808038 -1352.315997713366 0 0 0
2584 173 4 0 -1694.512855030403 -422.00478913535585 -1388.5411806219383 0 0 1
2938 196 13 -0.5 -2625.8723129719624 -326.21864801030006 -1351.6541473791526 0 0 0
965 65 5 0 -2823.6338742350626 -220.81812955107154 -1372.6472617476124 0 0 0
968 65 8 0 -2840.005186127197 -151.6759971634394 -1375.8109982250196 0 0 0
961 65 1 0 -2831.949716741953 -97.96638516019699 -1350.4197412412734 0 0 0
657 44 12 0 -272.34035948182395 -49.145610293813455 -1400.7479251581888 0 0 0
4921 329 1 0 -1860.8312264431872 249.23645121137102 -1399.4985231066808 0 0 0
1063 71 13 -0.5 -565.5626227702467 360.4292550267154 -1356.8754699233086 0 0 0
1053 71 3 -1.5 -556.1069385637242 395.53181374428993 -1379.3184739591316 0 0 0
1062 71 12 0 -514.302812438424 420.42835195183847 -1384.104927688178 0 0 0
1060 71 10 1 -462.13060117147865 449.9520490584756 -1353.2905030072113 0 0 0
1423 95 13 -0.5 -1631.8199119155418 473.8480851976492 -1416.7774463452945 0 0 0
4927 329 7 2 -1915.9577857289205 534.5820050309692 -1416.917524538186 0 0 0
4931 329 11 1 -1918.5043475654422 564.2580220580279 -1371.7881387870743 0 0 0
1422 95 12 0 -1608.1631890143542 555.0490751816141 -1404.2656418108368 0 0 0
1420 95 10 1 -1570.5166104417924 603.7141435852586 -1379.5538489682513 0 0 0
4085 273 5 0 -1050.6942063944496 963.1484765454844 -1409.9999821145989 0 0 0
4479 299 9 0 -1866.728949402607 1044.11579385607 -1392.479803519279 0 0 0
4485 299 15 0 -1820.4851018285246 1033.844496025658 -1366.1148096451404 0 0 0
4476 299 6 -0.5 -1844.1938174805182 1086.9809791735327 -1366.3012811838616 0 0 0
2409 161 9 0 -2193.604505304832 -1486.870555671634 -1307.7139055811342 0 0 0
3620 242 5 0 -257.88321134069844 -1317.3467949146348 -1307.4817449945313 0 0 0
3768 252 3 -1.5 -1968.440740485834 -978.5418446847921 -1339.098157884711 0 0 0
3777 252 12 0 -1935.838788245267 -1016.7382972160761 -1340.3004808085154 0 0 0
2659 178 4 0 -5.326954932561556 -863.5989101808769 -1330.4775130281578 0 0 0
2656 178 1 0 -249.59661858827843 -696.4404227209048 -1289.9622014482331 0 0 0
1805 121 5 0 -2666.3798369082574 -488.48491038035326 -1286.3731971137431 0 0 0
2930 196 5 0 -2541.2264330491153 -452.37370141838267 -1342.100453089106 0 0 0
248 17 8 0 -1268.4736964709116 -518.1900884103338 -1330.2877505109814 0 0 0
973 65 13 -0.5 -2860.791262547012 -326.50954284122685 -1300.27895115264 0 0 0
963 65 3 -1.5 -2821.1034833755616 -342.6760186679552 -1303.218530476863 0 0 0
972 65 12 0 -2784.5755567582983 -329.7774820021691 -1331.3276425298914 0 0 0
970 65 10 1 -2721.7724017177056 -327.66760865278223 -1333.4802323518802 0 0 0
967 65 7 2 -2660.595558676714 -329.404585352934 -1337.0947307695315 0 0 0
2928 196 3 -1.5 -2606.7281852565147 -353.36405062023425 -1324.4543913633363 0 0 0
971 65 11 1 -2607.0787230636934 -326.33602381027174 -1337.8309274657909 0 0 0
2937 196 12 0 -2555.919735744569 -359.1072176869607 -1316.4672515629668 0 0 0
2935 196 10 1 -2500.6860575893206 -335.76873308124647 -1297.5129147675511 0 0 0
969 65 9 0 -2543.263964790941 -314.8322756366542 -1324.554320616563 0 0 0
966 65 6 -0.5 -2488.2024406947985 -305.7569062892377 -1330.2956843917605 0 0 0
2932 196 7 2 -2447.1590413600575 -307.405295930794 -1285.4769442099937 0 0 0
975 65 15 0 -2517.7427081528863 -261.66433708401905 -1291.9075872396268 0 0 0
974 65 14 -1.5 -2454.3363859907945 -280.3539346139284 -1315.7636031182644 0 0 0
2936 196 11 1 -2399.1738773697984 -283.60529587091025 -1281.274724548204 0 0 0
2940 196 15 0 -2287.027400468277 -233.78405794913306 -1286.9272860541628 0 0 0
2927 196 2 0 -2246.342723796912 -255.05476877095842 -1287.483804441708 0 0 0
2929 196 4 0 -2192.316759992171 -263.54659579379876 -1278.2998958127644 0 0 0
962 65 2 0 -2487.0469356665376 -176.86118823247907 -1289.1138028833013 0 0 0
964 65 4 0 -2475.0253014061896 -131.57495340276503 -1275.1628224472724 0 0 0
652 44 7 2 -263.0745612340834 -78.90140163176902 -1280.6981716233354 0 0 0
655 44 10 1 -265.27235827017074 -67.48580155079802 -1341.0812441128412 0 0 0
1711 115 1 0 -273.9413127943145 299.5817201891202 -1329.8002087899388 0 0 0
1718 115 8 0 -328.50579860066375 321.24526386568226 -1297.4638109407872 0 0 0
1057 71 7 2 -412.3868826379191 478.5068365978359 -1329.5679162907436 0 0 0
1061 71 11 1 -366.8901351025219 502.5454526067394 -1313.8312241547023 0 0 0
1059 71 9 0 -312.2104736956736 523.1164149221202 -1283.2642500608154 0 0 0
4929 329 9 0 -1935.151435984713 599.0616878819991 -1314.7976846413837 0 0 0
1065 71 15 0 -242.81161627148384 539.9464766545425 -1316.0018483588024 0 0 0
1052 71 2 0 -168.3341890746272 581.7631002319544 -1332.7616261429557 0 0 0
1054 71 4 0 -121.99847813192045 590.3235302384776 -1330.3589920516788 0 0 0
4926 329 6 -0.5 -1944.6177703760395 641.1049551830424 -1281.1253703957648 0 0 0
1417 95 7 2 -1529.3989593164374 637.5009240914563 -1348.4801696834409 0 0 0
1421 95 11 1 -1493.8830212911068 661.0040437521327 -1315.3322240035907 0 0 0
4472 299 2 0 -1749.3863217549256 1027.0898244772707 -1345.0529243197857 0 0 0
4474 299 4 0 -1695.3239282680822 1012.70500058142 -1334.7550839182477 0 0 0
4092 273 12 0 -1069.6798264729591 975.9128603429372 -1293.8966363724478 0 0 0
4083 273 3 -1.5 -1119.5028001345302 976.943712703294 -1294.1704288887115 0 0 0
4664 311 14 -1.5 -975.8249289278111 1037.6364961283155 -1287.5772821673797 0 0 0
4665 311 15 0 -1023.5019952452591 1043.5317657279056 -1295.3765372508462 0 0 0
4364 291 14 -1.5 -1933.3559077701698 1102.4045953138595 -1295.8004002821465 0 0 0
4234 283 4 0 -1895.0487711885482 1121.990354119607 -1328.0767053170064 0 0 0
4484 299 14 -1.5 -1841.9998164595524 1115.6533580273808 -1332.8430438498963 0 0 0
4652 311 2 0 -979.7080459842484 1091.7370067295387 -1308.9170451965635 0 0 0
5628 376 3 -1.5 -972.6474892698669 1050.7661107940608 -1286.6269450745326 0 0 0
4245 283 15 0 -1991.5052173576505 1172.8532339684584 -1277.4586631888199 0 0 0
4232 283 2 0 -1945.4051403051396 1150.0582103828413 -1320.120391894462 0 0 0
4654 311 4 0 -959.937534984428 1130.920511656638 -1325.5389363441623 0 0 0
4175 279 5 0 -782.2314715667543 1246.215001708287 -1289.8186729631457 0 0 0
4171 279 1 0 -834.958534696249 1315.4403924068838 -1327.501991638142 0 0 0
4178 279 8 0 -798.5606364120451 1311.3960224739787 -1288.1357211205698 0 0 0
4231 283 1 0 -2173.6735935589504 1480.2461631938786 -1332.3835427320544 0 0 0
4238 283 8 0 -2153.4585844642097 1451.0984629469792 -1286.1960784815299 0 0 0
2415 161 15 0 -2176.141645328086 -1434.896294982733 -1259.629267899502 0 0 0
3622 242 7 2 -159.47304588919098 -1453.2213360004428 -1207.6866515798733 0 0 0
3626 242 11 1 -119.57239266158135 -1488.8769081167718 -1212.0979097792028 0 0 0
3625 242 10 1 -203.4898699619081 -1410.5284279025666 -1207.697960337838 0 0 0
3770 252 5 0 -1925.1479474652378 -1008.0525381757428 -1259.26826416083 0 0 0
3773 252 8 0 -1865.002898506484 -1036.9780742575147 -1201.784888438126 0 0 0
2663 178 8 0 -263.8395778848243 -683.1813230678325 -1222.657397022682 0 0 0
1618 108 13 -0.5 -1489.1070789031291 -649.2164274013332 -1224.0876576896958 0 0 0
1610 108 5 0 -1486.0330442683505 -536.3951888622986 -1209.0440213999598 0 0 0
916 62 1 0 -955.6693889054156 -594.9348152640695 -1231.0891920518607 0 0 0
923 62 8 0 -896.6634629929462 -580.9160249272776 -1227.2926728536224 0 0 0
245 17 5 0 -1250.5606721242973 -506.0007761124073 -1265.8717970044354 0 0 0
2934 196 9 0 -2348.5101912103737 -244.7453178911422 -1265.95871217969 0 0 0
2931 196 6 -0.5 -2315.7148622566588 -201.56274232751872 -1262.2253393957456 0 0 0
2939 196 14 -1.5 -2279.760897349981 -184.66576058554557 -1241.2517739867242 0 0 0
3121 209 1 0 -1209.905960000989 -150.53082571789915 -1242.6766442816909 0 0 0
656 44 11 1 -268.0476966270538 -94.12789069394232 -1228.7670166023102 0 0 0
5057 338 2 0 -612.0394826292113 -5.889508942914447 -1221.5696620321644 0 0 0
5059 338 4 0 -576.7655494728012 11.41432141833399 -1241.7286883016377 0 0 0
1715 115 5 0 -368.1688311267476 357.3197950427447 -1266.7485017116946 0 0 0
1723 115 13 -0.5 -463.80350983904367 418.7889647079735 -1227.7211899398114 0 0 0
1713 115 3 -1.5 -420.73879632684805 421.9056761033343 -1230.1410068995315 0 0 0
1722 115 12 0 -386.35630513333916 394.9187809705989 -1206.3795062946992 0 0 0
1056 71 6 -0.5 -261.93825052346415 523.9280019999521 -1257.8283201685742 0 0 0
1064 71 14 -1.5 -232.25060443803358 542.8438746414283 -1230.6720432519423 0 0 0
4934 329 14 -1.5 -1962.6176882522145 653.372159877498 -1242.0902943938393 0 0 0
4935 329 15 0 -1896.7522855473194 625.8987812945351 -1268.6301603568575 0 0 0
1419 95 9 0 -1458.9972223186287 684.4019574887279 -1266.1453966052748 0 0 0
1425 95 15 0 -1450.149167520681 734.017726234626 -1248.5467005153932 0 0 0
1416 95 6 -0.5 -1427.936200865829 687.7174026421555 -1221.9210386970692 0 0 0
1412 95 2 0 -1410.0862664380752 800.9849439140032 -1235.9174751115083 0 0 0
4653 311 3 -1.5 -1310.1645099987877 881.2194428114715 -1260.9971891431883 0 0 0
4663 311 13 -0.5 -1300.4759181113875 839.5133258339953 -1264.2788514412518 0 0 0
4354 291 4 0 -1957.8944317188514 968.0593542231802 -1256.7486407078159 0 0 0
4662 311 12 0 -1285.1261830362655 919.6979436813349 -1253.9353767430366 0 0 0
4660 311 10 1 -1229.204068179878 950.088132590336 -1248.2464980414027 0 0 0
4657 311 7 2 -1173.9391674137685 974.87095812388 -1260.270888106506 0 0 0
4352 291 2 0 -1960.8407844390345 1026.7977191522357 -1222.0658455739122 0 0 0
4093 273 13 -0.5 -1145.0649131320802 1000.7748883865655 -1269.5737242223283 0 0 0
4661 311 11 1 -1122.114184150006 989.4521707922627 -1264.0385771775352 0 0 0
4659 311 9 0 -1058.1178120766454 1004.1474297162387 -1256.6262423275487 0 0 0
4656 311 6 -0.5 -1005.6959641803143 1016.7090977871002 -1262.529801929521 0 0 0
4090 273 10 1 -1014.4900245047006 998.2763781087665 -1265.948577523488 0 0 0
5638 376 13 -0.5 -997.3881529275823 1019.8356115422367 -1270.7053145343684 0 0 0
4087 273 7 2 -959.9178756005516 1025.5014528450108 -1252.7164531979192 0 0 0
4091 273 11 1 -910.5215096693928 1044.0122154858113 -1239.8472046008314 0 0 0
4365 291 15 0 -1972.0113718643875 1094.2802990704677 -1224.2781691322064 0 0 0
4356 291 6 -0.5 -1972.0179976990887 1103.8376760973745 -1274.017942443495 0 0 0
5633 376 8 0 -1099.0890590780186 1106.422635882335 -1200.716669050596 0 0 0
5637 376 12 0 -951.2535436199771 1088.5039508571417 -1262.2252822139803 0 0 0
4089 273 9 0 -859.9895921181252 1083.4611859828908 -1225.7852238802 0 0 0
4903 327 13 -0.5 -840.0936489852157 1123.8453839229091 -1247.2917880212447 0 0 0
4086 273 6 -0.5 -828.8615287820719 1124.2117630881282 -1204.3531272767866 0 0 0
5635 376 10 1 -896.2986127408869 1119.8485381840762 -1237.0637906524823 0 0 0
4095 273 15 0 -796.746600642432 1083.049936435766 -1216.9131396740838 0 0 0
4893 327 3 -1.5 -797.2174843296032 1122.0568059164193 -1242.9336574301929 0 0 0
4082 273 2 0 -714.169383373453 1108.579855244048 -1204.8922493797543 0 0 0
4084 273 4 0 -661.1278819377001 1122.0970662922837 -1213.8485120538953 0 0 0
4361 291 11 1 -2047.0477465877148 1185.1188601023555 -1225.2452850437194 0 0 0
4239 283 9 0 -2004.8315160812117 1173.2286313873326 -1226.2630224047239 0 0 0
4359 291 9 0 -2011.1975801359279 1133.0310887290902 -1247.528332068172 0 0 0
4236 283 6 -0.5 -1964.0283949367913 1146.5055590038273 -1252.5348947772459 0 0 0
4244 283 14 -1.5 -1924.1416290474635 1126.4761639446035 -1252.6334365000905 0 0 0
5630 376 5 0 -1035.3038289359947 1126.299165327 -1210.8665642139977 0 0 0
5632 376 7 2 -847.292705277871 1151.69140868881 -1218.8950086303996 0 0 0
4173 279 3 -1.5 -806.7709214359584 1161.7725942397562 -1224.0588826501037 0 0 0
4094 273 14 -1.5 -807.34542239164 1162.458037702589 -1213.61577327958 0 0 0
5636 376 11 1 -801.0665296824695 1175.5547810923924 -1203.9331828425181 0 0 0
4182 279 12 0 -764.2177740849843 1160.8795831374061 -1245.2013153367477 0 0 0
4902 327 12 0 -772.8774201901616 1128.5165974501178 -1201.2063793332306 0 0 0
4180 279 10 1 -705.960633726082 1157.756348561232 -1226.5995752193558 0 0 0
4268 285 8 0 -667.0091930685204 1192.5253863126102 -1258.3304297954157 0 0 0
4177 279 7 2 -649.5772556980131 1161.191006274384 -1201.3674003949943 0 0 0
4357 291 7 2 -2080.0821707293135 1220.943632155541 -1200.9624804756434 0 0 0
4261 285 1 0 -741.0909232134643 1208.4487544142535 -1259.836391011514 0 0 0
4265 285 5 0 -607.280198448766 1203.3712230461147 -1203.6343527253384 0 0 0
4235 283 5 0 -2160.71933630552 1392.1234582594234 -1248.8524425193368 0 0 0
2406 161 6 -0.5 -2164.4028505209344 1499.2986140324326 -1262.4798567864368 0 -1 0
2414 161 14 -1.5 -2129.803608168749 1477.9484690355953 -1245.0750575283068 0 -1 0
3624 242 9 0 -66.23571575593773 1473.8314272060823 -1227.8525938621588 0 -1 0
3621 242 6 -0.5 -12.876437700140327 1462.7316759876167 -1232.6004760324772 0 -1 0
2404 161 4 0 -2194.646890117615 -1364.9929067849293 -1160.674067664197 0 0 0
2402 161 2 0 -2168.080030011327 -1392.8069342615806 -1195.0053924626422 0 0 0
3627 242 12 0 -238.42091698935712 -1360.356010826625 -1197.2892305975831 0 0 0
3628 242 13 -0.5 -318.2818794510426 -1341.1367978477736 -1163.4434156798598 0 0 0
3618 242 3 -1.5 -283.9582558400349 -1331.5098797730238 -1187.6906065120602 0 0 0
3766 252 1 0 -1857.4829360696876 -1088.8086157433954 -1195.569367966418 0 0 0
2664 178 9 0 -16.307063787595062 -899.2481268674364 -1131.784602810189 0 0 0
2660 178 5 0 -282.4991570900751 -737.8922568730117 -1162.7547966733898 0 0 0
1608 108 3 -1.5 -1472.771765363779 -629.4079889757218 -1190.004101843681 0 0 0
1617 108 12 0 -1441.6706125968606 -589.9003833251846 -1187.6690349669634 0 0 0
1615 108 10 1 -1386.9255003104372 -563.1142665905777 -1158.856126747885 0 0 0
1612 108 7 2 -1337.6720167419921 -528.9186948969681 -1145.428719659312 0 0 0
253 17 13 -0.5 -1299.8513410303904 -525.2877875796253 -1132.044172745052 0 0 0
243 17 3 -1.5 -1275.5271170024953 -525.903920223361 -1167.8538033561351 0 0 0
1808 121 8 0 -2677.1682326289833 -472.15827580271196 -1197.7315613306903 0 0 0
1606 108 1 0 -1574.4053192784913 -503.04265447327873 -1148.0695406850411 0 0 0
1613 108 8 0 -1530.8714474782632 -502.3333905055376 -1197.9776620420182 0 0 0
1616 108 11 1 -1290.6805556480283 -504.06011108580685 -1136.4902420803855 0 0 0
252 17 12 0 -1230.2731159906928 -510.0161514259441 -1182.2273734319044 0 0 0
1614 108 9 0 -1227.7126608312983 -488.83852710561587 -1126.0450521989824 0 0 0
250 17 10 1 -1168.171656987253 -512.305761754252 -1174.4811353476312 0 0 0
1619 108 14 -1.5 -1135.9162686819893 -504.4493240852116 -1139.1580415653357 0 0 0
1611 108 6 -0.5 -1174.9411682373268 -484.6964090118281 -1137.6392540243523 0 0 0
251 17 11 1 -1057.373595837041 -522.6605406060843 -1144.7825250003373 0 0 0
247 17 7 2 -1108.1568089920513 -519.5362741800183 -1162.3640754738444 0 0 0
920 62 5 0 -876.8037083250292 -521.6578122232992 -1161.5150072289039 0 0 0
3128 209 8 0 -1204.1248671637984 -110.86591883163632 -1195.244717525699 0 0 0
3125 209 5 0 -1167.9190744323478 -78.00035006382686 -1154.707167507305 0 0 0
5061 338 6 -0.5 -677.8312407350315 -94.86570676744256 -1138.264814874066 0 0 0
5069 338 14 -1.5 -669.0225085435756 -134.2784643114634 -1156.222695500051 0 0 0
654 44 9 0 -264.63949333824434 -107.48008965416801 -1161.7945278054824 0 0 0
660 44 15 0 -212.3191464875834 -140.03202383628545 -1142.2016523869793 0 0 0
5064 338 9 0 -714.1521379235529 -53.99326016653474 -1130.5177851364886 0 0 0
5070 338 15 0 -685.5507091693737 -50.76437050075388 -1180.6689988583428 0 0 0
1291 87 1 0 -1101.1609753781388 351.84200453062726 -1147.4782339901355 0 0 0
1720 115 10 1 -335.057348445532 392.72074724947134 -1168.738851762546 0 0 0
1717 115 7 2 -282.2426387283779 403.70689117378953 -1138.2864716336787 0 0 0
4922 329 2 0 -1849.6286832566268 648.055779440924 -1194.2309543918655 0 0 0
4924 329 4 0 -1828.32417879884 642.6833062109938 -1135.664468485607 0 0 0
4685 313 5 0 -2961.1823561885594 742.0099967477145 -1129.307428437217 0 0 0
1424 95 14 -1.5 -1416.1179231422543 709.528783505171 -1184.8300333661707 0 0 0
4683 313 3 -1.5 -2929.6854044112874 880.830719616692 -1159.5305938309475 0 0 0
4693 313 13 -0.5 -2915.656544384614 889.4158252926452 -1199.7741927916159 0 0 0
4066 272 1 0 -2741.0875497983593 891.892242467603 -1152.4848799182969 0 0 0
1414 95 4 0 -1399.4396427804404 853.535037023217 -1195.9801253330202 0 0 0
4069 272 4 0 -2396.9439216099227 924.2904634084323 -1127.5049107436225 0 0 0
4651 311 1 0 -1447.9413027470048 1048.2716773039156 -1128.4165679811329 0 0 0
4655 311 5 0 -1361.2048416591047 978.1576262751315 -1192.3000128101125 0 0 0
4658 311 8 0 -1388.2435051101284 1026.144597233179 -1160.7503169311133 0 0 0
5626 376 1 0 -1145.01930905762 1118.0026075724636 -1184.7058537787784 0 0 0
4895 327 5 0 -827.6014577425865 1097.2214951980911 -1152.9225145422192 0 0 0
4183 279 13 -0.5 -822.6463681164552 1139.6700657271172 -1191.0082620248527 0 0 0
5634 376 9 0 -737.0000699314536 1191.0266722432564 -1189.233728312637 0 0 0
4900 327 10 1 -723.5952229442777 1153.5917238938437 -1167.6159416541839 0 0 0
5631 376 6 -0.5 -686.3992316815358 1181.8185928254818 -1174.1620277850152 0 0 0
4897 327 7 2 -683.6992381476053 1181.8322602432472 -1130.613753616281 0 0 0
5383 359 13 -0.5 -669.7450758879725 1166.7748438097806 -1163.8897219516352 0 0 0
5639 376 14 -1.5 -652.2437758711573 1194.4617823029212 -1149.2834360030288 0 0 0
5373 359 3 -1.5 -637.9635094624143 1192.5049526812986 -1175.4089200159 0 0 0
4181 279 11 1 -603.9555396280502 1161.9999440091487 -1173.325936983401 0 0 0
4179 279 9 0 -546.8806233987117 1181.0713996374488 -1143.069554441052 0 0 0
4360 291 10 1 -2122.907754702084 1257.3484616775393 -1175.2273826403293 0 0 0
4241 283 11 1 -2037.5364985378594 1221.1632742676613 -1194.0029394802714 0 0 0
4237 283 7 2 -2074.811778896533 1256.8426093847847 -1178.032232314587 0 0 0
5640 376 15 0 -723.7670433003113 1200.232299010047 -1129.5472877846933 0 0 0
5382 359 12 0 -607.3909944888746 1220.1805038667312 -1146.7592487206812 0 0 0
4353 291 3 -1.5 -2215.7915026175942 1313.012040446134 -1145.9089505752722 0 0 0
4362 291 12 0 -2168.0020471600324 1298.5594524933974 -1149.1239400460636 0 0 0
4240 283 10 1 -2113.979052446374 1302.7943955056342 -1164.3062709528976 0 0 0
3617 242 2 0 -12.82664744680906 1339.1755728401965 -1133.8347505505947 0 -1 0
4243 283 13 -0.5 -2213.3994197746083 1407.9412304769778 -1151.8582353443114 0 0 0
4233 283 3 -1.5 -2185.9613629751743 1378.0478323790821 -1138.150299813813 0 0 0
4242 283 12 0 -2154.7302945071488 1350.4972320026354 -1160.9712575764902 0 0 0
3630 242 15 0 -22.04364520696238 1420.1416293405393 -1177.6088861710991 0 -1 0
4351 291 1 0 -2114.47295135374 -1490.6822579749144 -1116.044465032026 0 1 0
3751 251 1 0 -458.28337687323966 -910.2274637711712 -1079.6690852200388 0 0 0
2668 178 13 -0.5 -312.46939187531206 -866.6110678976148 -1067.2862014212974 0 0 0
2658 178 3 -1.5 -283.8745158839094 -836.4460455224639 -1055.1579046613767 0 0 0
2665 178 10 1 -180.85708478736234 -840.15928569225 -1085.5841046643209 0 0 0
2666 178 11 1 -78.65424835482827 -884.3393890197523 -1118.1732306784825 0 0 0
2662 178 7 2 -125.27013210971919 -863.9991512029227 -1100.9300121190176 0 0 0
2667 178 12 0 -240.54740684978486 -822.3615768864097 -1071.378837447755 0 0 0
5533 369 13 -0.5 -2628.873560673563 -662.4856015939787 -1062.1829645895675 0 0 0
1620 108 15 0 -1187.464375324441 -525.2203509835792 -1105.7106868557225 0 0 0
1607 108 2 0 -1092.4838372343088 -514.2780991080846 -1069.419992149503 0 0 0
249 17 9 0 -1001.4829977850803 -515.3717877182612 -1111.0853183974418 0 0 0
246 17 6 -0.5 -952.198103330154 -496.4815595325931 -1097.6455973235884 0 0 0
254 17 14 -1.5 -911.8581456382063 -503.6113110029806 -1081.8257873411987 0 0 0
928 62 13 -0.5 -955.044578934292 -512.373453746236 -1056.2536857233301 0 0 0
927 62 12 0 -875.684397265274 -485.8287665790833 -1050.236546937387 0 0 0
1801 121 1 0 -2681.7053410771123 -446.9968156524324 -1121.682715640316 0 0 0
917 62 2 0 -572.2959967163591 -338.53975791624765 -1061.3870901432788 0 0 0
919 62 4 0 -519.603369768074 -319.07492853914255 -1053.5111043155157 0 0 0
5443 363 13 -0.5 -455.9030057818981 -322.39460207522006 -1075.4297146845388 0 0 0
3386 226 11 1 -568.6001933970178 -292.6764403547139 -1050.1466491267602 0 0 0
3384 226 9 0 -515.2308447615825 -256.1012575150831 -1057.795137372369 0 0 0
3381 226 6 -0.5 -487.00946704185793 -212.42243702920362 -1059.8193093811944 0 0 0
649 44 4 0 -76.88646287608482 -175.7921045659408 -1105.893853013913 0 0 0
647 44 2 0 -131.14289510451354 -152.75955854279982 -1118.0287789251304 0 0 0
651 44 6 -0.5 -243.94742722761814 -113.4872904401252 -1112.6425249851688 0 0 0
659 44 14 -1.5 -210.82788326661674 -118.09403215727208 -1084.278748610128 0 0 0
3132 209 12 0 -1146.4056302603988 -53.402612943608204 -1051.67634296402 0 0 0
5062 338 7 2 -817.1019314727522 -2.0488888078217364 -1097.718062255082 0 0 0
5066 338 11 1 -768.8501023313373 -22.246139364340074 -1112.7038271306294 0 0 0
5067 338 12 0 -930.5748357531203 25.048117856775594 -1053.9296695015132 0 0 0
5065 338 10 1 -872.0368719354636 15.224618298926625 -1076.4199838311717 0 0 0
3134 209 14 -1.5 -828.2780422565045 24.791005497978887 -1071.288560908585 0 0 0
1003 67 13 -0.5 -1123.4471870859088 288.1143240709401 -1063.1698169952215 0 0 0
1298 87 8 0 -1099.6247261489225 336.87698288920456 -1098.8574441416627 0 0 0
1295 87 5 0 -1068.8042901405954 359.9297166004207 -1069.6854533478293 0 0 0
1721 115 11 1 -233.3471297669357 414.1398954059819 -1117.754663136282 0 0 0
1719 115 9 0 -176.23850151573325 440.099735232759 -1094.7113394266994 0 0 0
1725 115 15 0 -103.55977259904272 414.6799924797464 -1106.7138558438676 0 0 0
1712 115 2 0 -56.69004691617558 436.03959230309744 -1110.6125791348709 0 0 0
5161 345 1 0 -1976.89916362541 474.7819431469694 -1083.353735125345 0 0 0
5168 345 8 0 -2009.623382253879 480.4495219538446 -1065.569812975831 0 0 0
1716 115 6 -0.5 -134.36726435600215 471.78932670940503 -1092.5519350520133 0 0 0
1724 115 14 -1.5 -119.91060238044261 513.0101492953825 -1100.4843374458699 0 0 0
5163 345 3 -1.5 -2156.1647188312963 608.3036194885377 -1054.3690275300642 0 0 0
5173 345 13 -0.5 -2146.444248722732 629.6572168116146 -1089.9541050963153 0 0 0
3523 235 13 -0.5 -1456.2908038244952 790.1766932264077 -1083.8871425127334 0 0 0
3513 235 3 -1.5 -1428.2762427978855 767.1966543378974 -1060.3439131118655 0 0 0
4692 313 12 0 -2912.918945174539 854.8618655146961 -1121.6808349002754 0 0 0
4690 313 10 1 -2863.6704998400382 851.8661363332698 -1077.9066035695328 0 0 0
4073 272 8 0 -2748.093453259907 847.3845286933254 -1086.7152329228932 0 0 0
4067 272 2 0 -2382.7588419679505 936.4633611504781 -1069.069061938585 0 0 0
4891 327 1 0 -902.0416833144618 1032.1681901693971 -1067.7340718968767 0 0 0
4898 327 8 0 -853.7637679301102 1039.2703353608385 -1113.4583965275904 0 0 0
4264 285 4 0 -238.1885486835584 1113.8382602282024 -1088.6384180313564 0 0 0
4901 327 11 1 -642.5422841994201 1197.8169760474382 -1100.124741449602 0 0 0
4185 279 15 0 -517.0703922569062 1155.206017500357 -1092.8271525260234 0 0 0
4262 285 2 0 -263.8679245443727 1165.7712949823913 -1099.7119030428883 0 0 0
5378 359 8 0 -742.8178378318324 1252.7405572361183 -1058.3131009055114 0 0 0
4273 285 13 -0.5 -651.6056193998169 1201.9099547467642 -1118.081576396963 0 0 0
5375 359 5 0 -673.979012550502 1242.1776028195022 -1077.5046258600662 0 0 0
4263 285 3 -1.5 -632.9559401072084 1235.3667741376119 -1099.1191978694478 0 0 0
5380 359 10 1 -547.6987225519939 1226.4978114980872 -1118.1435084482105 0 0 0
4899 327 9 0 -584.7378418559244 1224.5052424678997 -1081.3002453954543 0 0 0
4272 285 12 0 -592.8882059215872 1260.370535255822 -1118.5920424594276 0 0 0
4896 327 6 -0.5 -533.0571393343064 1234.5225735800464 -1083.5023938008628 0 0 0
4270 285 10 1 -526.9604658086222 1273.187897395876 -1113.676811223031 0 0 0
4176 279 6 -0.5 -510.2207633077772 1206.9776622568422 -1112.6217849584216 0 0 0
5377 359 7 2 -489.6997590369842 1242.0738138712336 -1105.8933893937296 0 0 0
4904 327 14 -1.5 -499.8832441877304 1263.2827028171043 -1074.647841597849 0 0 0
4184 279 14 -1.5 -503.77271664021407 1225.1707623152329 -1072.8224675016334 0 0 0
5381 359 11 1 -439.37905921728066 1260.325829705886 -1099.1925133444188 0 0 0
5379 359 9 0 -375.39248601963897 1268.1201911968024 -1085.024388209617 0 0 0
5385 359 15 0 -318.2147196517728 1249.1647561094953 -1119.14887108252 0 0 0
4275 285 15 0 -301.430002838015 1234.983141372811 -1071.3140680089493 0 0 0
5372 359 2 0 -249.73455235192353 1222.5898081627658 -1123.7337493097411 0 0 0
5374 359 4 0 -191.832867286284 1218.4086986662828 -1124.1051416122957 0 0 0
4363 291 13 -0.5 -2235.4263464629844 1341.8645356814461 -1121.0475093534965 0 0 0