LAMMPS data file via write_data, version 27 Jun 2024, timestep = 28800000, units = real

5730 atoms
15 atom types
5662 bonds
16 bond types
5730 angles
15 angle types

-3000 3000 xlo xhi
-1500 1500 ylo yhi
-1500 1500 zlo zhi

Masses

1 241.19
2 73.54000000000001
3 330.71
4 235.16
5 68.06999999999999
6 353.53
7 223.38
8 41.1
9 216.91
10 155.15
11 147.32
12 264.65
13 300.8
14 326.05
15 85.20999999999999

Pair Coeffs # lj/cut/coul/debye/gpu

1 0.71637 40.7505
2 0.665709 48.1397
3 1.15033 39.2216
4 0.726774 43.8077
5 0.514724 53.3428
6 1.17127 41.7847
7 1.2256 38.5601
8 0.675431 54.5696
9 1.26117 43.78
10 0.939007 42.5209
11 0.960667 41.1825
12 1.30988 48.0761
13 1.36645 37.7114
14 1.35529 39.2179
15 0.592003 47.2602

Bond Coeffs # harmonic

1 0.003 59.228
2 0.008 56.48
3 0.001 69.324
4 3.207 42.88
5 0.11 49.807
6 0.002 74.968
7 0.001 91.635
8 0.145 54.383
9 2.709 44.406
10 1.71 61.679
11 1.625 54.051
12 0.207 66.185
13 0.002 64.76
14 0.079 63.886
15 0.2 40
16 0.2 40

Angle Coeffs # harmonic

1 11.427 158.273
2 50.464 132.042
3 8.207 156.514
4 92.705 149.394
5 100 174.44
6 3.15 145.53
7 48.938 159.031
8 17.401 129.945
9 15.735 56.441
10 60 172.254
11 60.285 168.396
12 11.83 99.091
13 150 107.995
14 27.746 149.925
15 7.483 160.775

Atoms # full

3767 252 2 0 -1520.874068252038 -1293.9162445023846 -1465.3048743762702 0 0 0
3769 252 4 0 -1492.1310528718984 -1338.5616839409222 -1451.08708286691 0 0 0
3772 252 7 2 -1759.275889631693 -1220.6661537994753 -1435.3384671314498 0 0 0
3776 252 11 1 -1719.1503974143152 -1226.0181223012946 -1470.6343333066386 0 0 0
3780 252 15 0 -1589.6611201087667 -1250.1710787934255 -1489.064109808893 0 0 0
2551 171 1 0 -1400.4294416649286 -1273.587997504999 -1449.9931912722398 0 0 1
2558 171 8 0 -1362.5049874934311 -1223.8993196136867 -1447.2882083258976 0 0 1
2555 171 5 0 -1285.3784929533285 -1214.492816742441 -1471.5082695809622 0 0 1
1082 73 2 0 -2559.682052929073 -1098.2215604334872 -1446.1592881828788 0 0 1
2563 171 13 -0.5 -1251.5972151607502 -1088.5770314591107 -1475.5645567536722 0 0 1
2553 171 3 -1.5 -1213.9806795928332 -1082.2455255787602 -1455.8573084135733 0 0 1
2562 171 12 0 -1188.5181475757142 -1121.4618735585225 -1435.8964887589677 0 0 1
1814 121 14 -1.5 -2776.9947762025295 -609.8917547230437 -1447.935806912085 0 0 0
5704 381 4 0 -505.96226766342295 -626.3298090930554 -1443.5079755809204 0 0 1
5702 381 2 0 -498.4640446455462 -622.5061446676876 -1495.3956077481675 0 0 1
1806 121 6 -0.5 -2763.4740940394945 -568.3033364041455 -1451.5522193313082 0 0 0
1815 121 15 0 -2708.957632012265 -592.0191281067399 -1457.369429398865 0 0 0
1809 121 9 0 -2755.3091152832294 -520.0569640150646 -1431.8324457202373 0 0 0
965 65 5 0 -2741.0096432359273 -324.1076534012247 -1439.7173638462177 0 0 0
2582 173 2 0 -1734.1557304468802 -316.29950511179527 -1445.8143307283115 0 0 1
2594 173 14 -1.5 -1631.2473571609614 -342.7658892763051 -1439.9440440746087 0 0 1
2586 173 6 -0.5 -1620.62225605357 -332.8083923774675 -1481.3823576327202 0 0 1
2926 196 1 0 -2638.2711448523037 -242.61526730156677 -1488.3645820252202 0 0 0
2933 196 8 0 -2630.8323423899014 -200.62270637100409 -1466.2929884542732 0 0 0
1053 71 3 -1.5 -772.3412039853198 141.36748286695897 -1434.9888958197566 0 0 0
1062 71 12 0 -747.5986500065746 184.5885423804922 -1433.4875419376501 0 0 0
1411 95 1 0 -1469.2862556717987 440.40248756426195 -1437.1735074350172 0 0 0
4931 329 11 1 -1842.1608702474452 478.3325454772754 -1479.2758706939462 0 0 0
4480 299 10 1 -2079.9702023028376 1074.731402002403 -1482.0884457933166 0 0 0
4477 299 7 2 -2045.943355688765 1075.4905574557579 -1431.3151136470285 0 0 0
4364 291 14 -1.5 -2006.2598675679096 1068.0958438133089 -1435.3937606202578 0 0 0
2413 161 13 -0.5 -2256.343759733241 1351.538709781951 -1492.3182733688632 0 -1 0
2403 161 3 -1.5 -2243.5649057883343 1365.9287641032276 -1454.2545643346177 0 -1 0
2407 161 7 2 -2293.850249305669 -1491.7688533306696 -1378.4201863522326 0 0 0
2411 161 11 1 -2307.244112318611 -1443.811660001351 -1357.8526048606332 0 0 0
2554 171 4 0 -911.90563815405 -1444.9255504492223 -1370.5428303822519 0 0 1
2552 171 2 0 -931.2054183465401 -1400.2381119365637 -1390.767487932318 0 0 1
3766 252 1 0 -2062.9208570165742 -1279.6753990249533 -1375.6804705891946 0 0 0
2565 171 15 0 -965.1001643774889 -1307.2418491612473 -1382.4273679968594 0 0 1
3773 252 8 0 -2011.804151819859 -1233.4029646141084 -1387.2713872405914 0 0 0
3770 252 5 0 -1917.404111588089 -1232.0357561964804 -1391.9952007981865 0 0 0
3775 252 10 1 -1800.6603535651113 -1212.093142221845 -1390.654398313294 0 0 0
3777 252 12 0 -1853.4765743547403 -1208.5449784108307 -1350.6580077931621 0 0 0
2560 171 10 1 -1148.456217047529 -1149.3289688972593 -1399.4615463129746 0 0 1
2561 171 11 1 -1052.830175379378 -1198.3478264419982 -1358.8353025994677 0 0 1
2557 171 7 2 -1100.6569000474956 -1178.5752779961572 -1374.8608471552297 0 0 1
1084 73 4 0 -2576.8138532768144 -1086.4769956608577 -1392.3632752818537 0 0 1
1811 121 11 1 -2730.60634257697 -470.77051962471535 -1392.3707740354864 0 0 0
1807 121 7 2 -2703.798394080676 -432.9307817341353 -1365.1564709912907 0 0 0
963 65 3 -1.5 -2750.305397640896 -394.6834773258965 -1358.6805702549743 0 0 0
5533 369 13 -0.5 -2675.2511042195256 -408.8102246177806 -1374.3008336120424 0 0 0
972 65 12 0 -2711.4120281227465 -362.73275561050053 -1366.0494309359933 0 0 0
2584 173 4 0 -1779.458790251495 -310.5213213774106 -1404.6916780606941 0 0 1
1801 121 1 0 -2819.682572707294 -185.2597396330103 -1357.7877563844906 0 0 0
2930 196 5 0 -2607.1957519439934 -185.91678294495375 -1407.2073430501182 0 0 0
1063 71 13 -0.5 -809.586162674303 125.1266612258002 -1421.2214789356506 0 0 0
1060 71 10 1 -702.2097505179527 223.58214773318585 -1414.3930106496723 0 0 0
1057 71 7 2 -652.2095714519764 253.2934602945793 -1395.620279909486 0 0 0
1061 71 11 1 -608.6097808797214 283.1975701186545 -1382.6254989326542 0 0 0
1723 115 13 -0.5 -619.5279282635903 254.82459618156778 -1370.5821662861229 0 0 0
1713 115 3 -1.5 -625.0060642374159 296.73676862275374 -1377.6416883157121 0 0 0
1059 71 9 0 -568.9595270005225 333.2921303680464 -1366.5350469175507 0 0 0
1056 71 6 -0.5 -536.9955612773997 377.49223141638333 -1369.1359081959001 0 0 0
1065 71 15 0 -597.8907999057193 401.0788041735831 -1357.1193443910126 0 0 0
1064 71 14 -1.5 -495.8592106281586 394.1908291982059 -1364.2620019220708 0 0 0
4935 329 15 0 -1882.4880964606539 468.64740996667115 -1368.2215778157904 0 0 0
4926 329 6 -0.5 -1892.9965450290856 524.9379894371958 -1382.2099221173592 0 0 0
4929 329 9 0 -1864.9525336239456 496.60018546185535 -1419.8345194791732 0 0 0
1415 95 5 0 -1579.6187366240397 481.6725985769041 -1364.826680485069 0 0 0
1418 95 8 0 -1522.263768243039 451.6606684091105 -1419.3128784720273 0 0 0
1052 71 2 0 -595.9023553898504 491.5469989987083 -1367.267576441452 0 0 0
1054 71 4 0 -574.3122903337152 533.4339380205685 -1403.1262214752842 0 0 0
1414 95 4 0 -1759.4375272952236 882.969147841525 -1369.5191795689834 0 0 0
4244 283 14 -1.5 -2065.301892493705 1058.9277674059974 -1399.859737429659 0 0 0
4236 283 6 -0.5 -2080.469389022359 1072.0916838203484 -1360.58179981549 0 0 0
4365 291 15 0 -2023.456612010287 1121.8695556321277 -1424.4826988756163 0 0 0
4481 299 11 1 -2009.5421546314637 1077.4494966057973 -1390.8131079669101 0 0 0
4356 291 6 -0.5 -2010.4735506368415 1076.9039154948534 -1391.6900551908116 0 0 0
4359 291 9 0 -2021.8769974465201 1115.2211438041236 -1352.3633144430298 0 0 0
4264 285 4 0 -281.98833111073833 1199.045272989782 -1378.127947939353 0 0 0
2401 161 1 0 -2366.0957172291232 1214.7847731930144 -1355.4949573159568 0 -1 0
2408 161 8 0 -2309.8913621025276 1271.5910219989087 -1351.4094010174833 0 -1 0
2405 161 5 0 -2273.014057488998 1350.2622440168223 -1368.1641370627422 0 -1 0
2412 161 12 0 -2265.232357264115 1395.8403190304502 -1424.0107402523354 0 -1 0
2410 161 10 1 -2284.6574843817984 1453.005399767785 -1404.3358192325663 0 -1 0
2409 161 9 0 -2298.0841568362366 -1386.2752593445264 -1322.3642383970482 0 0 0
2406 161 6 -0.5 -2284.41524839731 -1350.8197643409258 -1285.1400546838172 0 0 0
2415 161 15 0 -2343.218105449203 -1329.9058287201879 -1301.7196003459615 0 0 0
2402 161 2 0 -2392.408665218254 -1306.8205883615271 -1297.6299953248529 0 0 0
2404 161 4 0 -2428.909577692486 -1259.1778923032275 -1279.2031417168994 0 0 0
2559 171 9 0 -997.9852481699237 -1231.6300334946834 -1342.8506537724425 0 0 1
2556 171 6 -0.5 -944.5067045811296 -1244.4971401918208 -1341.7786669013572 0 0 1
2564 171 14 -1.5 -914.3361971114203 -1269.858996565835 -1321.242886286208 0 0 1
3768 252 3 -1.5 -1875.8281568944137 -1190.9227189221672 -1310.5355038475734 0 0 0
5521 369 1 0 -2525.879453310983 -630.0623094131571 -1340.6901735428276 0 0 0
5528 369 8 0 -2548.1376514245885 -587.3887888493459 -1314.0345667574181 0 0 0
5525 369 5 0 -2599.8742666037756 -517.7512019848366 -1332.1743867668038 0 0 0
923 62 8 0 -829.5392526583914 -516.5716059195586 -1284.3003648393376 0 0 0
916 62 1 0 -874.5856165149642 -514.1634307338026 -1326.4017596488131 0 0 0
973 65 13 -0.5 -2751.301559219386 -429.4912101416824 -1333.2437103910556 0 0 0
5523 369 3 -1.5 -2685.8929267697313 -399.26431202133375 -1333.821646883167 0 0 0
5532 369 12 0 -2660.2674125570165 -409.5697065014469 -1293.7938862369206 0 0 0
1810 121 10 1 -2678.433619154475 -387.2230647021982 -1329.9431386166518 0 0 0
970 65 10 1 -2662.219023261806 -326.1558852868446 -1344.592177848172 0 0 0
1812 121 12 0 -2655.0586851573535 -341.879876422921 -1294.0889559262075 0 0 0
1803 121 3 -1.5 -2614.800360761595 -314.69229259138274 -1282.0954660990546 0 0 0
1808 121 8 0 -2806.929096845983 -237.8083214095777 -1331.6722155964762 0 0 0
1805 121 5 0 -2728.0237224758184 -271.4541345534317 -1288.4418764176482 0 0 0
2938 196 13 -0.5 -2633.2630107128393 -265.38058879680165 -1296.693328878479 0 0 0
1813 121 13 -0.5 -2579.7093629093724 -299.7127844877782 -1302.9061068843769 0 0 0
967 65 7 2 -2617.121065925061 -294.6572248968969 -1316.3846706158258 0 0 0
2928 196 3 -1.5 -2592.837514123043 -259.8482695113344 -1310.1873692702213 0 0 0
971 65 11 1 -2581.2079969184597 -260.25367297325266 -1294.706516181882 0 0 0
2937 196 12 0 -2564.3174950933258 -221.4563074107391 -1322.4704481606743 0 0 0
2935 196 10 1 -2511.8389572574765 -187.97359008127773 -1311.8393962865052 0 0 0
966 65 6 -0.5 -2487.428772754938 -186.90659392449086 -1278.0794994997138 0 0 0
969 65 9 0 -2530.4961480514426 -221.9245014470572 -1275.3530885546413 0 0 0
2932 196 7 2 -2462.091806285991 -154.42097491115655 -1299.981495126755 0 0 0
2936 196 11 1 -2419.5429375990866 -121.86292096398282 -1294.5635024886192 0 0 0
2931 196 6 -0.5 -2328.8025389154345 -43.614230170551494 -1275.767842620823 0 0 0
2939 196 14 -1.5 -2287.5381496518357 -30.627431759761073 -1286.941965010597 0 0 0
1722 115 12 0 -616.58679751699 333.36970727200463 -1349.8426197641543 0 0 0
1720 115 10 1 -565.9336327259895 370.9310994399937 -1339.2848311097323 0 0 0
4924 329 4 0 -1892.7586587804767 431.97331427992964 -1293.1589566567725 0 0 0
4922 329 2 0 -1882.4518026101146 449.2432465433027 -1341.7224293174736 0 0 0
1717 115 7 2 -518.2520431306433 409.856506531321 -1335.3633991178986 0 0 0
1721 115 11 1 -480.78127161051185 448.2142019402423 -1327.7421392287865 0 0 0
1422 95 12 0 -1627.644285240458 492.2547911831591 -1282.8594961501012 0 0 0
1719 115 9 0 -444.08239882492853 502.7926778338097 -1320.6422288396586 0 0 0
4934 329 14 -1.5 -1907.0056542869052 527.973991520268 -1340.1747835829258 0 0 0
1420 95 10 1 -1668.821971192138 538.7883250415023 -1287.4135577545853 0 0 0
1417 95 7 2 -1705.3765931941398 588.8341511401376 -1284.6745418427215 0 0 0
1716 115 6 -0.5 -396.94988226631904 527.6068054824741 -1325.9777309103936 0 0 0
1724 115 14 -1.5 -354.0766518511079 526.954161844152 -1337.425994920316 0 0 0
1421 95 11 1 -1741.6166967207562 629.3938206869294 -1280.8655520428015 0 0 0
1425 95 15 0 -1760.553405173819 754.678068450152 -1293.9415392098144 0 0 0
1412 95 2 0 -1766.353714917682 836.4385151111594 -1332.5732835592387 0 0 0
4232 283 2 0 -1985.677914326106 1038.7058781593682 -1325.4471252048304 0 0 0
4234 283 4 0 -1934.1246563848974 1004.5071657870708 -1333.0566845466988 0 0 0
4239 283 9 0 -2068.237453252527 1101.115372965121 -1316.9488510024562 0 0 0
4245 283 15 0 -2020.6214010925694 1060.6513820513833 -1337.0229962477583 0 0 0
4479 299 9 0 -1980.1754756164655 1091.7995440412315 -1333.4754833199634 0 0 0
4476 299 6 -0.5 -1969.395874625617 1113.2146372169452 -1283.818146008639 0 0 0
4485 299 15 0 -1985.6167532782601 1064.1784684005959 -1285.0953538558767 0 0 0
4361 291 11 1 -2051.1130795073836 1151.27521888432 -1304.8523608649446 0 0 0
4275 285 15 0 -345.44223822453694 1241.2184287368702 -1290.9376664298054 0 0 0
4262 285 2 0 -320.7098001637429 1229.0668884564623 -1333.6191630560797 0 0 0
4261 285 1 0 -718.897930375497 1307.5629525715083 -1296.140497990698 0 0 0
5384 359 14 -1.5 -324.6344938033635 1290.34701988008 -1288.2361033812297 0 0 0
3619 242 4 0 -90.4113281565179 1388.8293913241066 -1302.7040040271547 0 -1 0
2414 161 14 -1.5 -2252.0226008720456 -1325.4555773918435 -1269.331482791667 0 0 0
3778 252 13 -0.5 -1867.247224344807 -1191.3114854469663 -1269.0438152130753 0 0 0
2656 178 1 0 -283.9351897166174 -741.7035209401989 -1218.1653940088058 0 0 0
920 62 5 0 -825.3882131672101 -511.0260183319575 -1208.9295654290815 0 0 0
5530 369 10 1 -2658.3820986440173 -408.89190684753714 -1229.2699587260888 0 0 0
646 44 1 0 -116.51180515469123 -337.10049530108444 -1242.4076297276208 0 0 0
653 44 8 0 -165.52289334564776 -299.5928167903529 -1235.9955820790674 0 0 0
650 44 5 0 -181.48454520996785 -232.6246882891553 -1219.2776240833152 0 0 0
974 65 14 -1.5 -2452.823431977971 -164.25383368387855 -1262.9816489677564 0 0 0
962 65 2 0 -2550.8859057090867 -76.76083983372824 -1229.765269162255 0 0 0
975 65 15 0 -2527.760633085639 -145.95574728116435 -1235.9979299303009 0 0 0
2934 196 9 0 -2367.1011561777054 -84.81126904981357 -1274.0267671811025 0 0 0
648 44 3 -1.5 -160.2766330046218 -102.4323809386956 -1206.9049015231044 0 0 0
658 44 13 -0.5 -199.60814410166068 -83.99842428233094 -1207.2339058251828 0 0 0
2940 196 15 0 -2357.264689692488 -40.01880254076074 -1208.4912276747652 0 0 0
1718 115 8 0 -681.2200798359542 229.31520362528173 -1206.2000115276012 0 0 0
1715 115 5 0 -657.3107293649815 294.76597684721634 -1250.9862517333067 0 0 0
1423 95 13 -0.5 -1576.114910990141 429.2725008290049 -1271.542298264782 0 0 0
3016 202 1 0 -842.2502435698219 397.1073725204655 -1249.854032169253 0 0 0
1413 95 3 -1.5 -1612.31633166333 451.47073341528966 -1266.7423151993055 0 0 0
3019 202 4 0 -495.5045914699414 495.68483760637105 -1262.9588545031731 0 0 0
3017 202 2 0 -477.3642067887045 484.0635152202379 -1214.3527253739921 0 0 0
1725 115 15 0 -406.59706548254576 514.4675741229796 -1270.717070481962 0 0 0
1712 115 2 0 -372.39885256427686 524.7463157137233 -1229.2039644625822 0 0 0
1416 95 6 -0.5 -1785.1760474555495 729.5713346864761 -1238.7395026856298 0 0 0
1419 95 9 0 -1773.358599346605 683.1131037506833 -1264.7825171632721 0 0 0
1424 95 14 -1.5 -1813.6213656612558 751.1158754925372 -1212.4455797801436 0 0 0
4472 299 2 0 -1969.2412057657255 1060.840374273525 -1237.8555190836614 0 0 0
4351 291 1 0 -2328.7461000578774 1178.3693756299288 -1225.1887992495408 0 0 0
4241 283 11 1 -2074.322663679282 1137.1724646997795 -1263.7784110409932 0 0 0
4357 291 7 2 -2061.3162853880904 1182.915149818144 -1262.1573812143429 0 0 0
4237 283 7 2 -2071.703072858702 1169.449887557203 -1220.1082757954512 0 0 0
4484 299 14 -1.5 -1977.9956100416273 1141.9426955897363 -1251.2868885156445 0 0 0
4360 291 10 1 -2080.0069281465 1217.5522748663677 -1213.9932750174044 0 0 0
4904 327 14 -1.5 -486.7154254928757 1268.985297148677 -1228.3043713995164 0 0 0
5381 359 11 1 -460.6678803027251 1262.1391049987105 -1212.236874527173 0 0 0
4174 279 4 0 -389.47327643007145 1209.9530245888282 -1209.9729381059785 0 0 0
5379 359 9 0 -400.05720757507237 1270.6160984279481 -1233.578989049278 0 0 0
4269 285 9 0 -357.56164709997853 1254.032461858488 -1222.2188688128776 0 0 0
4266 285 6 -0.5 -310.9203984272566 1274.108095626151 -1242.0394593876517 0 0 0
4274 285 14 -1.5 -266.9519605630931 1271.5610624700212 -1240.9720108473389 0 0 0
4268 285 8 0 -699.4868369213071 1325.341613880204 -1262.827303909291 0 0 0
4265 285 5 0 -653.5910328381408 1305.4887768031047 -1209.6362591618413 0 0 0
4184 279 14 -1.5 -534.8746747593549 1295.5497909064588 -1203.103980662926 0 0 0
5385 359 15 0 -376.7855813031005 1307.8334664723618 -1217.8539027084346 0 0 0
5376 359 6 -0.5 -355.4991341194567 1291.9321899392105 -1256.350744042997 0 0 0
3617 242 2 0 -110.96469287027952 1437.1870427990393 -1274.9199412011997 0 -1 0
3630 242 15 0 -114.326408101019 1460.8632405761389 -1233.736422321075 0 -1 0
3622 242 7 2 -240.53864582688024 -1429.4769785759195 -1157.8838179430509 0 0 0
3626 242 11 1 -195.78604069686043 -1460.5707102171275 -1164.5945159132596 0 0 0
3627 242 12 0 -339.8804938159015 -1354.0038904569494 -1132.6287254508727 0 0 0
3625 242 10 1 -289.72591976900003 -1392.9656941112319 -1147.7047878126543 0 0 0
3856 258 1 0 -523.3410785444576 -1277.7513781154598 -1196.1011019743396 0 0 0
3863 258 8 0 -482.70853415396266 -1283.5914314341483 -1154.5486120566304 0 0 0
3860 258 5 0 -413.5214736251113 -1330.8153547513227 -1131.2422943025645 0 0 0
3628 242 13 -0.5 -391.10080439378874 -1306.7536533324806 -1169.843606798773 0 0 0
3618 242 3 -1.5 -364.6805366156582 -1315.8765506874986 -1137.6361060795502 0 0 0
2663 178 8 0 -251.04569719518025 -711.9983920999715 -1199.454493562417 0 0 0
2660 178 5 0 -202.17548995304585 -729.6841105303619 -1170.8559645199653 0 0 0
1614 108 9 0 -1173.17760372347 -552.3834395503916 -1127.7882228126039 0 0 0
1611 108 6 -0.5 -1125.0862311273704 -526.0788483821426 -1133.476594600649 0 0 0
255 17 15 0 -922.1168045265912 -528.3818361847592 -1148.975802854097 0 0 0
242 17 2 0 -844.8248221820285 -536.2353487698874 -1161.9641413272939 0 0 0
244 17 4 0 -797.4248560996098 -526.0508464426066 -1148.7630154983133 0 0 0
1619 108 14 -1.5 -1084.6650538250904 -522.4751814158303 -1151.273536032372 0 0 0
251 17 11 1 -1044.7874394953958 -490.5042891280759 -1145.757365191853 0 0 0
249 17 9 0 -979.7304892197328 -482.62513663111645 -1157.8503140634689 0 0 0
246 17 6 -0.5 -932.9742115558219 -480.48031154559663 -1187.1344547852536 0 0 0
928 62 13 -0.5 -924.0307509368419 -470.10862410520434 -1130.0206897540559 0 0 0
254 17 14 -1.5 -890.3916852003276 -467.6658538634648 -1188.1797614967088 0 0 0
918 62 3 -1.5 -890.3362761668672 -487.01581680919827 -1151.4991877620266 0 0 0
927 62 12 0 -842.0052642301476 -479.38960067917037 -1154.3917199591042 0 0 0
925 62 10 1 -783.4568598429825 -459.3994441038908 -1125.608225307562 0 0 0
5527 369 7 2 -2655.4969635596613 -426.4373528333128 -1170.1464186946005 0 0 0
1607 108 2 0 -1165.5372768507743 -372.7136782377508 -1148.8250817599117 0 0 0
1609 108 4 0 -1185.6386022805912 -322.124748617041 -1160.0410499887323 0 0 0
3121 209 1 0 -1320.8719868061517 -216.02245825261343 -1126.1335088739197 0 0 0
657 44 12 0 -140.3703102104677 -134.7213933624609 -1176.6398578524045 0 0 0
964 65 4 0 -2573.3867796360746 -31.855693962948763 -1196.7976482217773 0 0 0
2927 196 2 0 -2370.667445915192 -28.913986341919575 -1150.2856085347962 0 0 0
1711 115 1 0 -667.3356174426106 195.9440433591706 -1143.7197102415332 0 0 0
3023 202 8 0 -830.657971867893 389.64955763018907 -1183.4878876325477 0 0 0
3029 202 14 -1.5 -436.6581521614974 380.68216165210913 -1127.3322350668157 0 0 0
2389 160 4 0 -692.7511710662499 521.0089750202015 -1149.0224279721908 0 0 0
3030 202 15 0 -498.1324530413008 461.00780765489264 -1142.9428124400392 0 0 0
1714 115 4 0 -330.86827486239946 521.969147753267 -1199.9717165089592 0 0 0
5162 345 2 0 -2014.8841972211628 954.1303907169844 -1159.8245253445166 0 0 0
5164 345 4 0 -1982.6521538713469 996.0646130745447 -1169.3284233751933 0 0 0
4474 299 4 0 -1934.9572829312258 1058.0943931994352 -1191.8743992057427 0 0 0
5626 376 1 0 -997.0337143771272 1089.2724142700072 -1162.5795217576292 0 0 0
5633 376 8 0 -1004.2452616778726 1078.156863876085 -1128.672469757915 0 0 0
4177 279 7 2 -698.3416247713944 1177.8740676512532 -1138.5053454311717 0 0 0
4901 327 11 1 -602.667129466396 1189.5918528417747 -1148.9448437849064 0 0 0
4181 279 11 1 -652.2371767284535 1197.4179719873787 -1157.1676606434282 0 0 0
4263 285 3 -1.5 -620.7086790335106 1194.8089605405091 -1129.5685537300121 0 0 0
4897 327 7 2 -644.4689847015749 1160.9163944985314 -1130.5109107735398 0 0 0
4358 291 8 0 -2303.1394420922115 1226.178073234637 -1194.5367285497418 0 0 0
4355 291 5 0 -2229.829979543042 1260.2057414046906 -1188.7568968517298 0 0 0
4362 291 12 0 -2108.68293972095 1253.0988817026816 -1165.6103670594941 0 0 0
4240 283 10 1 -2078.1701848224875 1206.400255596989 -1170.6844053808622 0 0 0
5382 359 12 0 -629.1567355243563 1256.5554833315034 -1147.3214300532818 0 0 0
5373 359 3 -1.5 -660.9832993565028 1225.0991543757334 -1128.3195077152354 0 0 0
4179 279 9 0 -599.6789666452951 1231.568210545292 -1180.797999015201 0 0 0
4899 327 9 0 -553.4204148715078 1219.1556328561774 -1180.8354373397117 0 0 0
5380 359 10 1 -568.7642651339581 1263.926148610015 -1173.8199375728475 0 0 0
4176 279 6 -0.5 -556.9611570691551 1264.3740062369202 -1180.4230912842456 0 0 0
4272 285 12 0 -583.2536797023998 1228.9280189235847 -1130.0265651120965 0 0 0
4270 285 10 1 -521.4416339275539 1237.8164644005587 -1146.1493709052145 0 0 0
4896 327 6 -0.5 -514.3549664777236 1255.7931286183698 -1195.8994820338273 0 0 0
4185 279 15 0 -508.93260976116295 1208.4167812847163 -1187.2358159032465 0 0 0
5377 359 7 2 -510.959076282962 1265.6235911205947 -1195.0878107875599 0 0 0
4267 285 7 2 -465.9244598575158 1240.0398273729588 -1172.0621240883959 0 0 0
4172 279 2 0 -431.23879901767214 1200.4778521052558 -1189.2085946600666 0 0 0
4271 285 11 1 -414.85412853662484 1244.6622151869292 -1189.0724068437441 0 0 0
4353 291 3 -1.5 -2103.6459283886606 1280.8954205091347 -1128.849185801468 0 0 0
4235 283 5 0 -2162.0206136827755 1311.9835326952727 -1128.2460505092242 0 0 0
4171 279 1 0 -916.1778495368077 1307.652641581728 -1136.767796617023 0 0 0
4905 327 15 0 -522.2864782253062 1283.6280221734326 -1152.4170921772647 0 0 0
4892 327 2 0 -460.09033722779026 1346.9571536164765 -1131.4616377022385 0 0 0
4231 283 1 0 -2264.083641295304 1389.745708310493 -1181.9766042896438 0 0 0
4238 283 8 0 -2216.432376651786 1356.0764919348649 -1147.3301798554007 0 0 0
4894 327 4 0 -412.5045579267509 1373.446489894566 -1134.4272800084332 0 0 0
5372 359 2 0 -330.4668815524388 1371.3422955434532 -1176.4612779199856 0 0 0
5374 359 4 0 -279.5611522247317 1394.6741397969138 -1166.747151908439 0 0 0
3624 242 9 0 -146.80739220004162 1495.203342090198 -1167.7837148554156 0 -1 0
3621 242 6 -0.5 -95.00020941144999 1482.4135166476628 -1170.1476224580497 0 -1 0
3629 242 14 -1.5 -54.352878636660925 1477.9393782136162 -1153.3546983610656 0 -1 0
3623 242 8 0 -520.0532040075717 -1419.8242268440358 -1052.3289982151255 0 0 0
3620 242 5 0 -427.09219889984075 -1419.2368531703253 -1093.5856562651704 0 0 0
3867 258 12 0 -357.45346379858296 -1368.1072939471246 -1076.539102258689 0 0 0
3858 258 3 -1.5 -316.21909455138245 -1386.5559055377605 -1104.6073004326372 0 0 0
3868 258 13 -0.5 -278.34286718615965 -1369.483548247174 -1114.8817082778667 0 0 0
1318 88 13 -0.5 -162.99620657022325 -938.4104664712211 -1050.9672542473354 0 0 0
2668 178 13 -0.5 -131.04455625984173 -869.5978354212331 -1063.8144737181785 0 0 0
2658 178 3 -1.5 -131.58408457783295 -825.9626380732449 -1062.799939889106 0 0 0
1618 108 13 -0.5 -1350.7422661388177 -813.6171206849064 -1051.25225927431 0 0 0
1608 108 3 -1.5 -1329.465149109781 -782.125180272523 -1070.45343145951 0 0 0
1310 88 5 0 -147.44319175870714 -757.5201122497427 -1051.0676264384101 0 0 0
2667 178 12 0 -100.7800672189862 -793.3307039218628 -1080.0538624968972 0 0 0
2665 178 10 1 -43.579790898431064 -782.3904786278675 -1104.771529664591 0 0 0
1613 108 8 0 -1488.1001945372611 -685.4060650735111 -1074.8136515123651 0 0 0
1610 108 5 0 -1418.1683901104504 -703.8766976053431 -1066.2096056637122 0 0 0
1617 108 12 0 -1331.4615685012275 -734.1589332455936 -1074.7479365349232 0 0 0
1615 108 10 1 -1294.685609032889 -681.0862144462868 -1089.6226244623772 0 0 0
1606 108 1 0 -1531.528510143038 -635.3684903496392 -1072.2728441036759 0 0 0
1612 108 7 2 -1250.5591349987435 -639.9488291587404 -1103.1759056109315 0 0 0
253 17 13 -0.5 -1231.5677442295175 -614.214899302608 -1076.021698422902 0 0 0
1616 108 11 1 -1211.145883199247 -605.5493511943563 -1114.6652683553787 0 0 0
243 17 3 -1.5 -1232.149830962833 -572.4488525514656 -1066.9241907718986 0 0 0
252 17 12 0 -1209.0994702973517 -535.6792991717805 -1095.860674578184 0 0 0
5529 369 9 0 -2628.619964869269 -459.8620850305593 -1059.299468101228 0 0 0
245 17 5 0 -1261.3845244720235 -478.8677175518474 -1080.8720292242817 0 0 0
1620 108 15 0 -1177.9267128296708 -466.3005899263153 -1123.6634713369954 0 0 0
250 17 10 1 -1150.9532149182137 -511.37364401254985 -1108.5510416733164 0 0 0
247 17 7 2 -1093.0152613378707 -498.26760160949095 -1121.9137147927293 0 0 0
5531 369 11 1 -2648.701649418179 -448.47961024484175 -1121.1473627895593 0 0 0
3388 226 13 -0.5 -748.443168520883 -402.1529542089535 -1087.7949081297659 0 0 0
922 62 7 2 -732.3552285559397 -438.4192495390296 -1097.9676490354348 0 0 0
926 62 11 1 -691.2383632438978 -419.9420088819362 -1066.8138651078052 0 0 0
3378 226 3 -1.5 -732.5734658793862 -380.40800520692915 -1054.6736051871676 0 0 0
5061 338 6 -0.5 -738.4542654855497 -328.1327473017413 -1073.791332055598 0 0 0
5069 338 14 -1.5 -727.7490628414744 -366.25145926467906 -1093.3632778424187 0 0 0
5066 338 11 1 -836.0042716656944 -258.29105680198404 -1050.8321702002922 0 0 0
5064 338 9 0 -778.2435629707393 -293.3519443335324 -1052.8942918950343 0 0 0
3128 209 8 0 -1292.1133171308932 -186.75993520257217 -1081.206262863463 0 0 0
3135 209 15 0 -921.1080885864175 -207.5735788268682 -1066.4158501594186 0 0 0
3122 209 2 0 -855.3236653476305 -204.99913372576472 -1067.4161046160439 0 0 0
5438 363 8 0 -606.7218048145346 -187.5325257923863 -1058.5855814836477 0 0 0
652 44 7 2 -93.21570766555995 -172.2112380508303 -1063.00200706489 0 0 0
3125 209 5 0 -1253.2317124165434 -125.09455190958084 -1073.0501815383345 0 0 0
5431 363 1 0 -610.4060621639344 -127.35954211991971 -1068.9340014766458 0 0 0
655 44 10 1 -114.9484467017826 -149.76253772661306 -1116.6424446403498 0 0 0
2929 196 4 0 -2371.25275329701 -62.695989047068295 -1088.0749322256477 0 0 0
1291 87 1 0 -1251.6418019364344 234.42005667746133 -1054.670596990021 0 0 0
1292 87 2 0 -776.4659778760489 300.24160671744767 -1069.0342812947156 0 0 0
3020 202 5 0 -796.6915833364533 357.9361400361581 -1108.4777875313448 0 0 0
1294 87 4 0 -737.419109637749 301.5938134341736 -1124.1848661365539 0 0 0
3022 202 7 2 -630.9227033679424 379.35230644944124 -1051.6749323790862 0 0 0
3026 202 11 1 -578.7086056549412 395.5904180857605 -1057.685619281148 0 0 0
3024 202 9 0 -519.1657332094219 406.89923862392146 -1084.1051278818388 0 0 0
3021 202 6 -0.5 -475.16636761815244 398.3837048877782 -1115.9417347006795 0 0 0
5168 345 8 0 -1961.474503624359 523.4437424630225 -1054.1521594422154 0 0 0
5161 345 1 0 -1913.3119482772165 477.07429075157967 -1071.853793113462 0 0 0
2387 160 2 0 -678.034579300816 492.5065499126448 -1096.8508769525552 0 0 0
4663 311 13 -0.5 -1169.121620842386 682.9333859773619 -1070.2891798064313 0 0 0
4653 311 3 -1.5 -1178.6059718846425 720.601153188555 -1051.9421177551812 0 0 0
3061 205 1 0 -2771.9889559648755 751.9868870520346 -1061.8097869726914 0 0 0
5171 345 11 1 -2035.0941344711598 804.8277460431234 -1050.082046806285 0 0 0
4662 311 12 0 -1158.9923031266303 767.6579076264358 -1050.1455022360171 0 0 0
4660 311 10 1 -1109.0135962574127 805.7982272797897 -1056.8574851733754 0 0 0
5169 345 9 0 -2046.8692679702935 868.3583831007542 -1068.239893583046 0 0 0
5175 345 15 0 -2026.6716098818833 889.5450732293522 -1104.226095347576 0 0 0
4093 273 13 -0.5 -1061.2870561907607 865.2704956505236 -1090.1006635514245 0 0 0
4657 311 7 2 -1064.9392921705344 849.3660388810447 -1055.8266750244534 0 0 0
4083 273 3 -1.5 -1023.340522824679 879.2809458102633 -1103.9765373531532 0 0 0
4092 273 12 0 -979.763286242053 888.3903788517495 -1078.645410705849 0 0 0
5166 345 6 -0.5 -2040.6818129094886 923.7280266743112 -1064.2715782372954 0 0 0
5174 345 14 -1.5 -2012.4803735271682 957.5981547712217 -1069.2240961552886 0 0 0
4090 273 10 1 -936.2812318739847 934.5309653661909 -1062.5327095181117 0 0 0
4652 311 2 0 -915.7845790273421 1039.8290304443103 -1063.9179566130617 0 0 0
4665 311 15 0 -952.3281878219915 982.7606758164712 -1058.5739963574315 0 0 0
4066 272 1 0 -2679.701954595997 1056.2976393897889 -1071.5116979733712 0 0 0
5630 376 5 0 -966.2952925616713 1063.579242737062 -1063.2325081413933 0 0 0
4654 311 4 0 -860.5523116024972 1067.084152189462 -1071.174358846424 0 0 0
4903 327 13 -0.5 -826.9876384804169 1104.0946322015418 -1071.6188455860788 0 0 0
4173 279 3 -1.5 -834.8018559308541 1111.3593167629351 -1062.6737199400275 0 0 0
4893 327 3 -1.5 -787.3446053122597 1088.4662606358409 -1066.8769272034356 0 0 0
4902 327 12 0 -744.4816011191003 1110.5673189152121 -1072.4883600938376 0 0 0
4182 279 12 0 -805.1187638001435 1137.4954861974354 -1091.0690831417294 0 0 0
5636 376 11 1 -770.4713574908119 1151.7257821048916 -1061.9456472841964 0 0 0
4094 273 14 -1.5 -790.9164598518831 1155.874164768362 -1050.0723038752292 0 0 0
4180 279 10 1 -749.3932160109084 1154.9253248271789 -1111.5409251246538 0 0 0
4900 327 10 1 -694.9555466307077 1134.463818651508 -1107.1354563909476 0 0 0
5634 376 9 0 -715.1107735804042 1172.3976765137381 -1091.2755217049887 0 0 0
5631 376 6 -0.5 -665.6662694975558 1173.400677137721 -1111.612683684507 0 0 0
5639 376 14 -1.5 -627.5454704296469 1195.0857396279152 -1120.3206290174314 0 0 0
4273 285 13 -0.5 -660.5155455582544 1192.9448381211757 -1113.6821185359354 0 0 0
5383 359 13 -0.5 -664.8102912864293 1185.9999830470008 -1110.852670968094 0 0 0