LAMMPS data file via write_data, version 27 Jun 2024, timestep = 7680000, units = real

5730 atoms
15 atom types
5467 bonds
16 bond types
5730 angles
15 angle types

-3000 3000 xlo xhi
-1500 1500 ylo yhi
-1500 1500 zlo zhi

Masses

1 241.19
2 73.54000000000001
3 330.71
4 235.16
5 68.06999999999999
6 353.53
7 223.38
8 41.1
9 216.91
10 155.15
11 147.32
12 264.65
13 300.8
14 326.05
15 85.20999999999999

Pair Coeffs # lj/cut/coul/debye/gpu

1 0.71637 40.7505
2 0.665709 48.1397
3 1.15033 39.2216
4 0.726774 43.8077
5 0.514724 53.3428
6 1.17127 41.7847
7 1.2256 38.5601
8 0.675431 54.5696
9 1.26117 43.78
10 0.939007 42.5209
11 0.960667 41.1825
12 1.30988 48.0761
13 1.36645 37.7114
14 1.35529 39.2179
15 0.592003 47.2602

Bond Coeffs # harmonic

1 0.003 59.228
2 0.008 56.48
3 0.001 69.324
4 3.207 42.88
5 0.11 49.807
6 0.002 74.968
7 0.001 91.635
8 0.145 54.383
9 2.709 44.406
10 1.71 61.679
11 1.625 54.051
12 0.207 66.185
13 0.002 64.76
14 0.079 63.886
15 0.2 40
16 0.2 40

Angle Coeffs # harmonic

1 11.427 158.273
2 50.464 132.042
3 8.207 156.514
4 92.705 149.394
5 100 174.44
6 3.15 145.53
7 48.938 159.031
8 17.401 129.945
9 15.735 56.441
10 60 172.254
11 60.285 168.396
12 11.83 99.091
13 150 107.995
14 27.746 149.925
15 7.483 160.775

Atoms # full

2403 161 3 -1.5 -2333.4213207282937 -1466.0173118432388 -1443.5359407842693 0 0 0
2405 161 5 0 -2314.852012090266 -1367.1663472454763 -1489.697482018325 0 0 0
3616 242 1 0 -387.1917627793433 -1357.2847277907736 -1474.6654190812476 0 0 0
3623 242 8 0 -381.3971123915498 -1345.012553731559 -1431.625771811094 0 0 0
3769 252 4 0 -1642.365788084282 -1023.70945029987 -1426.1610500737897 0 0 0
2594 173 14 -1.5 -1591.93194448606 -386.1665560992477 -1428.5064030570666 0 0 1
2586 173 6 -0.5 -1607.4822261556478 -375.1325108679021 -1468.5241591464576 0 0 1
2595 173 15 0 -1645.60953428491 -368.65580320823193 -1432.7014822353058 0 0 1
965 65 5 0 -2725.472109444986 -235.55844173020182 -1436.34929739057 0 0 0
2930 196 5 0 -2529.8751400155497 -275.9554426765687 -1443.584119187875 0 0 0
968 65 8 0 -2745.153596397234 -200.2341481381375 -1496.9443832699396 0 0 0
1074 72 9 0 -457.8250499324908 -206.4237807549594 -1499.589033113698 0 0 1
1071 72 6 -0.5 -421.01649592211686 -181.7621019509049 -1469.2735295836208 0 0 1
1079 72 14 -1.5 -377.27888954070454 -171.3686113228973 -1468.1247489976506 0 0 1
1067 72 2 0 -314.40261157517045 -165.97175119621605 -1479.6723306951958 0 0 1
1069 72 4 0 -262.50416188172545 -137.46435057051798 -1479.7929379241614 0 0 1
646 44 1 0 -369.39266904946714 13.991490150063239 -1496.4310469408101 0 0 0
650 44 5 0 -247.23446630479606 20.007396155765754 -1494.355720838074 0 0 0
657 44 12 0 -165.35194298695038 45.32803861870332 -1467.9863039694492 0 0 0
1058 71 8 0 -711.8658746887262 502.9300955358228 -1445.488258848456 0 0 0
4930 329 10 1 -1833.6667863458879 624.357605836859 -1459.1432785936606 0 0 0
4483 299 13 -0.5 -2234.0625743520977 862.1784407311499 -1485.0520280783928 0 0 0
4482 299 12 0 -2188.674317996314 939.5068337910527 -1482.4977405648071 0 0 0
4473 299 3 -1.5 -2219.6702989698706 900.8632217649485 -1497.657937388401 0 0 0
4480 299 10 1 -2129.5622195517435 948.4516237413823 -1459.6611653795103 0 0 0
4477 299 7 2 -2070.202309858367 963.9859018992166 -1454.1171477959176 0 0 0
1409 94 14 -1.5 -2153.669855883948 997.9328085192612 -1494.7210580996161 0 0 1
4481 299 11 1 -2020.7965248327691 978.4926774826015 -1439.5232839381672 0 0 0
4479 299 9 0 -1956.443072768254 990.9725912027799 -1438.2082337339111 0 0 0
4485 299 15 0 -1931.0886372509817 1049.7962859819345 -1450.8955530195453 0 0 0
4484 299 14 -1.5 -1864.3323123922119 994.2295013159019 -1425.1906025417936 0 0 0
4081 273 1 0 -1158.182390264289 1018.3287379709741 -1437.259025441996 0 0 0
4472 299 2 0 -1856.9837711371074 1142.0848547360583 -1470.6690385822365 0 0 0
4474 299 4 0 -1804.288343351867 1164.4618832116525 -1477.1610492967063 0 0 0
4261 285 1 0 -534.7091941721299 1210.1015184949674 -1444.6078392462462 0 0 0
2413 161 13 -0.5 -2336.46443361568 1491.1940707155602 -1447.1221006445728 0 -1 0
2412 161 12 0 -2306.1901236291114 -1430.9427644299662 -1421.490318812151 0 0 0
2410 161 10 1 -2250.7856815154746 -1416.7802292069223 -1393.2317334298648 0 0 0
2407 161 7 2 -2195.6846648740498 -1411.5988045504369 -1365.6840896066594 0 0 0
3774 252 9 0 -1770.6277473007808 -1137.5418887866945 -1357.0681938010343 0 0 0
3771 252 6 -0.5 -1720.537075855966 -1137.0702627936323 -1382.1453032161855 0 0 0
3780 252 15 0 -1756.658952478158 -1081.3967392737034 -1403.7652442529766 0 0 0
3779 252 14 -1.5 -1682.0804111600387 -1115.8488147422006 -1387.5718859891836 0 0 0
3767 252 2 0 -1705.447910076099 -1049.0888145805209 -1414.5275781219884 0 0 0
1813 121 13 -0.5 -2556.061780388913 -706.2909563675711 -1401.598997006992 0 0 0
1803 121 3 -1.5 -2558.340357402533 -663.4268647331966 -1397.094135904588 0 0 0
1812 121 12 0 -2527.5700908446775 -619.8010849441276 -1408.7286735143655 0 0 0
1814 121 14 -1.5 -2209.705187970372 -602.6154476663243 -1406.1009104931998 0 0 0
1805 121 5 0 -2594.9574342384763 -547.7381192014684 -1385.3065345719883 0 0 0
1810 121 10 1 -2468.3452548620803 -595.2815498697175 -1405.259480711037 0 0 0
1807 121 7 2 -2410.9341171589804 -577.3877730252524 -1389.38471884889 0 0 0
1811 121 11 1 -2357.182927642362 -568.212162170633 -1379.234396100871 0 0 0
1809 121 9 0 -2291.7163197523164 -568.6843150296222 -1373.1639566784543 0 0 0
1806 121 6 -0.5 -2239.644336532588 -575.223556870458 -1388.5186966710935 0 0 0
1815 121 15 0 -2253.19670482484 -513.7222789874614 -1390.2876924707134 0 0 0
1802 121 2 0 -2209.763821602839 -457.30532331405266 -1368.2360922592827 0 0 0
1804 121 4 0 -2180.3375024436746 -400.50513795169 -1359.1063582183212 0 0 0
973 65 13 -0.5 -2782.328280693666 -342.2280118421375 -1375.3814333876742 0 0 0
963 65 3 -1.5 -2751.819201410061 -325.5551939810782 -1350.5820512056916 0 0 0
972 65 12 0 -2705.170007517507 -302.9310842411232 -1355.9907042009388 0 0 0
2582 173 2 0 -1633.8578613425564 -350.360663037019 -1364.1040183733364 0 0 1
655 44 10 1 -168.38748426158506 59.2397290423319 -1401.0664280583612 0 0 0
1711 115 1 0 -499.3332352101639 237.79847697774088 -1366.7791838833941 0 0 0
1423 95 13 -0.5 -1736.39780008246 372.0035973771867 -1416.6350228255449 0 0 0
1413 95 3 -1.5 -1745.5319598506387 413.6933194778596 -1411.8453081554724 0 0 0
1422 95 12 0 -1715.7904457091147 456.6235327334665 -1412.2099308876604 0 0 0
1420 95 10 1 -1656.4127380853106 483.32789668953603 -1395.1604890821002 0 0 0
1417 95 7 2 -1602.4783359148125 502.5338434497862 -1370.2970894208472 0 0 0
1421 95 11 1 -1555.7636847341785 525.2527730134752 -1354.512773983055 0 0 0
4927 329 7 2 -1835.7968266418998 670.0170237318251 -1418.6349415158184 0 0 0
4931 329 11 1 -1837.803096724039 705.394853940891 -1378.8359483131983 0 0 0
4924 329 4 0 -1953.5052381593762 879.2293598850567 -1354.6150437652507 0 0 0
4476 299 6 -0.5 -1907.7328416765592 1005.354491331824 -1424.9673196877545 0 0 0
4088 273 8 0 -1197.7087656808735 1001.6075733258546 -1386.4992749428004 0 0 0
5630 376 5 0 -1004.0569744952595 1147.9028098195583 -1364.4278349147862 0 0 0
5633 376 8 0 -1015.1313200571591 1197.4174132972914 -1416.747359967406 0 0 0
4268 285 8 0 -604.0099738392288 1162.5491894825025 -1409.4522622166207 0 0 0
5626 376 1 0 -1027.0432570380628 1251.9461305860027 -1419.0296365084039 0 0 0
4231 283 1 0 -2240.1126377503147 1383.5602882536693 -1362.5714472144243 0 0 0
2411 161 11 1 -2148.927200277413 -1398.2223273175425 -1343.510592613946 0 0 0
2409 161 9 0 -2084.401931742459 -1393.792210831335 -1321.4738178084149 0 0 0
2406 161 6 -0.5 -2031.257507366015 -1401.7083628937369 -1315.1206766459834 0 0 0
2414 161 14 -1.5 -1991.1266553913715 -1411.0465369636206 -1331.9233368160824 0 0 0
3628 242 13 -0.5 -402.06612009048075 -1399.3177570479456 -1290.1309342434513 0 0 0
3620 242 5 0 -359.1729341721302 -1331.4414138869224 -1340.9727233502454 0 0 0
3776 252 11 1 -1818.6595097127272 -1137.6180483088892 -1311.0533497366537 0 0 0
3772 252 7 2 -1862.5069999411744 -1149.8181429310057 -1282.0631618686673 0 0 0
2661 178 6 -0.5 -4.065398013746198 -780.8938818357885 -1280.6765007195681 0 0 0
916 62 1 0 -1028.1250619381544 -529.8535424983861 -1327.5703879078255 0 0 0
1808 121 8 0 -2636.995050840267 -504.5785618999061 -1342.602807814473 0 0 0
1801 121 1 0 -2656.8871109073084 -498.4380168030487 -1285.1128266490896 0 0 0
241 17 1 0 -1245.1638049041594 -436.2917472034971 -1295.67312156982 0 0 0
2584 173 4 0 -1638.7683081206212 -356.8911622347583 -1312.6716457652292 0 0 1
970 65 10 1 -2654.4877783269712 -276.71925338667563 -1324.8773906452839 0 0 0
2938 196 13 -0.5 -2615.4261211453218 -283.39644357813074 -1332.0414947117727 0 0 0
967 65 7 2 -2599.8358389566424 -257.59118460623114 -1305.671198208921 0 0 0
2928 196 3 -1.5 -2603.2087245975113 -243.72469277165857 -1341.484828246094 0 0 0
2937 196 12 0 -2556.029875971496 -228.87165221517787 -1342.0683565738825 0 0 0
971 65 11 1 -2551.0226837240166 -239.1220712241184 -1294.0249593707906 0 0 0
2935 196 10 1 -2507.924279099972 -187.49543579619956 -1324.9024607089698 0 0 0
975 65 15 0 -2467.816045340072 -194.86216774014883 -1282.868866157873 0 0 0
962 65 2 0 -2418.5051223383966 -146.7341336374766 -1290.2919433900263 0 0 0
974 65 14 -1.5 -2463.6563343094936 -113.62937895092149 -1285.7444460973227 0 0 0
2932 196 7 2 -2468.719942157455 -140.89678335011527 -1313.9943038350782 0 0 0
2936 196 11 1 -2436.01618777747 -105.93681488081583 -1289.8062875646913 0 0 0
964 65 4 0 -2368.4728889996372 -124.07723273773884 -1303.0501777043364 0 0 0
2929 196 4 0 -2190.2797552382162 -115.94163273324283 -1292.676042070084 0 0 0
2927 196 2 0 -2243.0667724082473 -103.14416741661493 -1277.8301148516966 0 0 0
652 44 7 2 -173.36927839353035 62.67324271897727 -1339.0353279341057 0 0 0
656 44 11 1 -178.39075977344336 65.19340376672243 -1285.2751316080726 0 0 0
1718 115 8 0 -478.120242571573 277.9676562849094 -1328.6547640813892 0 0 0
1054 71 4 0 -383.36112433246876 305.5764338897704 -1315.3141212729215 0 0 0
1052 71 2 0 -396.5435131003417 370.40175974861177 -1298.2011401208717 0 0 0
1419 95 9 0 -1508.885716192816 548.5392786730356 -1314.867773666248 0 0 0
1416 95 6 -0.5 -1465.2202399325954 579.5771026126864 -1302.827516987782 0 0 0
1424 95 14 -1.5 -1421.9369097318113 586.1845543208136 -1312.068405751907 0 0 0
1055 71 5 0 -719.8624912866974 533.5172099354332 -1348.711991081222 0 0 0
4929 329 9 0 -1829.8127614983425 740.6831849012955 -1323.5098353191029 0 0 0
4935 329 15 0 -1875.8115395660361 802.9038525611873 -1310.3133650980917 0 0 0
4926 329 6 -0.5 -1810.9337812238705 776.9813305421371 -1287.9957920076747 0 0 0
4683 313 3 -1.5 -2844.6455500880384 828.1536164595129 -1284.9052728423537 0 0 0
4693 313 13 -0.5 -2849.8042274721647 860.540267883967 -1313.0279565598928 0 0 0
4922 329 2 0 -1923.977963985083 845.1963021405793 -1320.2087940299234 0 0 0
4085 273 5 0 -1177.2934178084904 976.5855637477476 -1325.582931965983 0 0 0
4651 311 1 0 -1498.836062571384 1079.8938223589112 -1295.5220784423082 0 0 0
5637 376 12 0 -947.6445429061471 1100.5899452081342 -1278.6400862033388 0 0 0
4173 279 3 -1.5 -779.3958099303003 1119.0939230368274 -1293.4062615091166 0 0 0
4903 327 13 -0.5 -815.7643403930653 1151.550093420013 -1300.6935934514718 0 0 0
4183 279 13 -0.5 -817.9110093888031 1137.1963808227865 -1301.2914987596546 0 0 0
4265 285 5 0 -572.1743428199139 1163.7967973486543 -1331.4121712850983 0 0 0
4238 283 8 0 -2267.9505525748054 1344.7437492037045 -1325.3986151519755 0 0 0
4235 283 5 0 -2261.3530337727316 1311.7667202006746 -1276.1282833745265 0 0 0
4178 279 8 0 -774.274596889078 1293.6482321569904 -1288.831495882847 0 0 0
4351 291 1 0 -2297.549251438618 1431.9500402676122 -1275.3298731904915 0 0 0
2415 161 15 0 -2061.2286141661853 -1379.7984873224862 -1273.1861534499742 0 0 0
2402 161 2 0 -2023.004782846399 -1360.7831562228341 -1215.1672976581149 0 0 0
3618 242 3 -1.5 -376.4628229954956 -1379.6304098453224 -1261.6280354419869 0 0 0
3627 242 12 0 -329.9292415052806 -1356.1393872980834 -1267.227812643165 0 0 0
3625 242 10 1 -273.98354332963726 -1329.4612192550253 -1256.5834330264806 0 0 0
3622 242 7 2 -217.66072095100097 -1311.523264061656 -1237.1624734332195 0 0 0
3626 242 11 1 -164.00139552102976 -1303.0011746141204 -1233.0192446963106 0 0 0
3624 242 9 0 -100.74019974335215 -1308.2165903115758 -1225.2342879608234 0 0 0
3768 252 3 -1.5 -2017.5743373578828 -1158.494637543301 -1215.929183698939 0 0 0
3777 252 12 0 -1967.0145843875944 -1153.051376605057 -1217.0051676644111 0 0 0
3775 252 10 1 -1912.2515085421076 -1150.4584026865775 -1245.9204839032727 0 0 0
2666 178 11 1 -65.47113341598629 -840.6622903122243 -1203.0401705509557 0 0 0
2664 178 9 0 -20.58752139230025 -814.3382967843461 -1241.0951800348957 0 0 0
923 62 8 0 -1002.6795391567534 -542.1060598244046 -1262.5536346867768 0 0 0
248 17 8 0 -1261.953146798956 -423.8630251731476 -1235.5968694608102 0 0 0
969 65 9 0 -2502.2434860167 -202.44781848300715 -1270.6949898210446 0 0 0
966 65 6 -0.5 -2474.4315189448043 -153.1349973628648 -1268.7570951576627 0 0 0
2940 196 15 0 -2321.194173250626 -92.49420650106457 -1258.7861841987112 0 0 0
2934 196 9 0 -2382.706172402568 -68.36589854918697 -1273.1879895245977 0 0 0
2931 196 6 -0.5 -2344.6988015331713 -46.177227510575925 -1239.2719237102633 0 0 0
2939 196 14 -1.5 -2302.1928569989664 -40.236799833283236 -1229.5451646780436 0 0 0
3124 209 4 0 -853.2719921984186 -71.38630129959832 -1200.1658635473 0 0 0
3121 209 1 0 -1241.7875099524704 90.8336258998902 -1228.7771747522165 0 0 0
654 44 9 0 -175.9367373074147 82.40327312842493 -1221.1096945018194 0 0 0
1715 115 5 0 -490.8015446749947 285.9704525997904 -1251.1377800603864 0 0 0
1065 71 15 0 -410.4951287402461 415.39074154223533 -1239.9575648194746 0 0 0
1057 71 7 2 -565.6771429809925 505.3910957121334 -1236.0123769211714 0 0 0
1061 71 11 1 -517.4986183031248 483.96367524058735 -1224.4559831065271 0 0 0
1059 71 9 0 -457.5236464647386 467.36926286197877 -1206.6887329690467 0 0 0
1063 71 13 -0.5 -755.9486710219139 594.1555580627091 -1225.3723826334106 0 0 0
1062 71 12 0 -680.3681343066294 556.1574381848878 -1247.7359969177367 0 0 0
1053 71 3 -1.5 -727.5528918397516 562.0542065572997 -1227.1556250328547 0 0 0
1060 71 10 1 -620.4088947371287 532.710928871293 -1241.7872164247033 0 0 0
1425 95 15 0 -1500.9911950922847 627.3066615146442 -1274.1261746422026 0 0 0
1412 95 2 0 -1450.2436704125926 681.731256157335 -1237.2709165436106 0 0 0
4685 313 5 0 -2921.4415623785185 807.1853918931428 -1224.9125923956512 0 0 0
4692 313 12 0 -2837.5470794256075 820.1984392428562 -1235.2791448749897 0 0 0
4934 329 14 -1.5 -1785.5962832278021 786.7752056150836 -1253.4346807111692 0 0 0
4093 273 13 -0.5 -1218.5271662131584 961.7136269249135 -1210.1518261188153 0 0 0
4658 311 8 0 -1470.7315948227472 1038.02707860751 -1268.4382753987738 0 0 0
4655 311 5 0 -1399.1371452894296 1035.4087007987448 -1226.145227074099 0 0 0
4092 273 12 0 -1141.6896413698757 992.9152919294494 -1225.178667994269 0 0 0
4661 311 11 1 -1185.0376538855692 1004.9752679778461 -1201.452194751092 0 0 0
4090 273 10 1 -1087.852375512049 1032.2685305307027 -1228.8628509713715 0 0 0
4656 311 6 -0.5 -1070.5078007551847 1033.668985159692 -1207.8232150010008 0 0 0
4664 311 14 -1.5 -1027.3366515154355 1026.2069758612784 -1200.2734559144965 0 0 0
4665 311 15 0 -1080.0424064822555 1103.0824435719996 -1201.2880996747447 0 0 0
4087 273 7 2 -1032.712435567279 1058.9800187262751 -1223.1576533334717 0 0 0
5628 376 3 -1.5 -988.2676994291965 1085.230741875412 -1257.7562732508081 0 0 0
5638 376 13 -0.5 -1002.8684608081238 1086.3238677211848 -1217.3499444070455 0 0 0
4091 273 11 1 -982.6148085102584 1078.9961900081128 -1222.936995210511 0 0 0
4089 273 9 0 -925.3993638622146 1103.0275710202534 -1234.375441651013 0 0 0
4095 273 15 0 -863.2670730804655 1071.4753635496427 -1220.3977254470506 0 0 0
4893 327 3 -1.5 -819.3239106828426 1119.1491014891092 -1272.1741238560153 0 0 0
4902 327 12 0 -791.6846434991976 1114.697066792188 -1233.8067277029802 0 0 0
4082 273 2 0 -784.0164230230837 1076.2873579832592 -1201.0611181067775 0 0 0
4180 279 10 1 -684.5398632375793 1115.7298518783266 -1240.6919126059038 0 0 0
4900 327 10 1 -730.7199091065179 1118.2191918436433 -1213.6458765377088 0 0 0
4177 279 7 2 -631.6920054970585 1109.0509647392546 -1209.762898957422 0 0 0
4243 283 13 -0.5 -2281.5941579472033 1197.4796177402313 -1207.9040563545962 0 0 0
4652 311 2 0 -1034.206386536873 1128.4152472566864 -1223.0540893335833 0 0 0
4654 311 4 0 -981.2675252613062 1125.551841847817 -1237.3533696679508 0 0 0
5635 376 10 1 -888.8021258640241 1128.2779568759997 -1270.511051402524 0 0 0
4086 273 6 -0.5 -881.1997577473498 1135.4340883562281 -1233.5566394805205 0 0 0
4094 273 14 -1.5 -837.8413909758756 1136.0221359659977 -1225.0720807163789 0 0 0
5632 376 7 2 -829.417462749392 1143.5640074106805 -1264.9143526949078 0 0 0
5636 376 11 1 -778.9040695753565 1158.8018880380414 -1255.7318402725932 0 0 0
4182 279 12 0 -737.2848046296597 1130.3664360682842 -1267.6126154484657 0 0 0
5634 376 9 0 -717.8718543155378 1166.266929063419 -1234.1117398316426 0 0 0
5373 359 3 -1.5 -631.6090430039035 1141.5059212842082 -1238.993126713505 0 0 0
5383 359 13 -0.5 -670.9756060110348 1159.7150361574331 -1233.6212255657622 0 0 0
5631 376 6 -0.5 -666.7536291750625 1153.8682055420709 -1221.6071486805806 0 0 0
4263 285 3 -1.5 -624.0887893585459 1179.467919417181 -1215.5108623805227 0 0 0
5382 359 12 0 -589.4747408014969 1136.7474292224597 -1212.225807440799 0 0 0
4272 285 12 0 -575.1637423939433 1188.4116535694168 -1227.5639712489776 0 0 0
5380 359 10 1 -525.5988598655841 1141.1740468872388 -1207.2436771901914 0 0 0
4270 285 10 1 -516.7786881053373 1192.1726726019642 -1207.5096556222093 0 0 0
5377 359 7 2 -466.67724041859725 1160.0978607860222 -1203.3162813578515 0 0 0
5379 359 9 0 -349.6240205983161 1184.6436967911336 -1205.4224478073734 0 0 0
4175 279 5 0 -737.0596608831917 1237.5601665322793 -1271.121403605859 0 0 0
4273 285 13 -0.5 -654.9177677355394 1208.0637303913174 -1207.506952330449 0 0 0
4266 285 6 -0.5 -296.05151269131557 1253.2617286659759 -1201.9558605132725 0 0 0
4274 285 14 -1.5 -252.70371807511643 1255.6344718082673 -1201.4797256201757 0 0 0
4358 291 8 0 -2285.389920902317 1415.7983380251071 -1229.5627631902032 0 0 0
4232 283 2 0 -1968.5784292564756 1402.1341023082155 -1226.0761675783624 0 0 0
4171 279 1 0 -767.165918921729 1350.7659775640109 -1269.0563122035237 0 0 0
4234 283 4 0 -1974.8208021583696 1445.516622682969 -1259.0431639551243 0 0 0
3617 242 2 0 -93.50158612415427 -1405.8077307714893 -1134.9559593039353 0 0 0
3630 242 15 0 -83.1588827800504 -1355.4283741932738 -1187.35013730986 0 0 0
2404 161 4 0 -2014.03308701055 -1343.165394956986 -1161.1937216861807 0 0 0
3629 242 14 -1.5 -10.811174816797626 -1302.660964343296 -1194.246401088142 0 0 0
3621 242 6 -0.5 -54.11369503735712 -1311.6112312233308 -1197.506337156591 0 0 0
3778 252 13 -0.5 -2042.1981562648011 -1178.0536871726126 -1186.0208001162193 0 0 0
2667 178 12 0 -224.32000991324614 -888.0467826222821 -1148.3381196529776 0 0 0
2665 178 10 1 -166.01318837274744 -880.3459224532205 -1164.1102929849567 0 0 0
2662 178 7 2 -111.78898708313865 -856.9941557312477 -1180.7536435969 0 0 0
2660 178 5 0 -272.2574452778613 -791.591680230013 -1157.54273970147 0 0 0
2663 178 8 0 -279.6562792339376 -712.7760065758093 -1133.2840076250643 0 0 0
1617 108 12 0 -1497.9530098141715 -581.5343984934223 -1130.5043520690685 0 0 0
920 62 5 0 -1012.6148599084526 -563.1830576113604 -1163.448198334043 0 0 0
1620 108 15 0 -1204.8017293436876 -519.3654021072972 -1143.6879383289058 0 0 0
245 17 5 0 -1267.859314913131 -453.4388760871422 -1171.3790541984101 0 0 0
1607 108 2 0 -1151.9907216930685 -483.6541302162332 -1141.0876388553131 0 0 0
3377 226 2 0 -392.68822882828584 -201.29451570669758 -1158.1012447614041 0 0 0
3379 226 4 0 -340.99016863971764 -193.43601769779 -1183.144332718619 0 0 0
3122 209 2 0 -841.2828214924509 -49.01901487147565 -1165.0668410332262 0 0 0
3125 209 5 0 -1164.5297909485266 38.35684352528462 -1142.1948218146467 0 0 0
5057 338 2 0 -675.2887771625664 61.940714194047715 -1125.0125892706583 0 0 0
5059 338 4 0 -674.2321601658595 43.280881515736716 -1163.7859520906964 0 0 0
660 44 15 0 -189.3139535327938 58.41148855679773 -1164.0597545912162 0 0 0
3128 209 8 0 -1209.8886548313465 85.41929909926326 -1177.3355812595962 0 0 0
651 44 6 -0.5 -183.88063056971905 112.97949925653131 -1175.2686884120512 0 0 0
1723 115 13 -0.5 -461.0221388175661 219.4152448001835 -1131.4487487991148 0 0 0
659 44 14 -1.5 -181.48121563539925 153.7738242718781 -1157.6993929484493 0 0 0
1722 115 12 0 -454.88355692344555 303.14513207840423 -1140.870788295379 0 0 0
1720 115 10 1 -417.5748243938615 349.2166307954284 -1139.357873577706 0 0 0
1717 115 7 2 -374.42962095925105 392.1584441263848 -1138.4621364417728 0 0 0
1721 115 11 1 -340.47813471788777 434.02042739404476 -1136.5042489231191 0 0 0
5161 345 1 0 -2139.3012749054406 521.7507188576451 -1172.3276067909794 0 0 0
1056 71 6 -0.5 -405.6347972768148 476.9386043331575 -1197.1896895982 0 0 0
1064 71 14 -1.5 -369.9577038548966 479.3622473730894 -1171.259232492432 0 0 0
1719 115 9 0 -302.2627942204744 487.6518039995816 -1142.4098520261853 0 0 0
1716 115 6 -0.5 -252.40385954398897 507.2847484802626 -1151.0556095467523 0 0 0
1724 115 14 -1.5 -214.65946342027453 507.1409914441043 -1173.976859265312 0 0 0
5168 345 8 0 -2181.8716344152153 549.4768601595754 -1131.6439951228551 0 0 0
5173 345 13 -0.5 -2254.772981302548 709.8006026951961 -1138.3488255765287 0 0 0
1414 95 4 0 -1432.9768047293019 722.7024424776547 -1197.3709673094934 0 0 0
4688 313 8 0 -2999.37323125448 824.4634683730732 -1196.3999842553983 0 0 0
4690 313 10 1 -2819.5390515476965 852.9202450888366 -1181.6410393660256 0 0 0
4687 313 7 2 -2793.8559171679835 876.806526854033 -1131.5469150349331 0 0 0
4663 311 13 -0.5 -1440.6101513973401 945.682054395379 -1171.2956197843191 0 0 0
4653 311 3 -1.5 -1399.5044535019804 935.7343045356057 -1177.3698257339772 0 0 0
4662 311 12 0 -1357.7125805454682 966.3840471411081 -1183.3077721532395 0 0 0
4083 273 3 -1.5 -1178.1983387583543 970.4212335638463 -1199.4412135764187 0 0 0
4660 311 10 1 -1297.1562415857695 978.5221762089384 -1184.2851374198 0 0 0
4657 311 7 2 -1237.6688336395864 992.3304630857638 -1196.636898866082 0 0 0
4659 311 9 0 -1122.9421621824856 1028.1419750086256 -1195.2564005271793 0 0 0
4891 327 1 0 -951.4223457001772 1124.8606288243107 -1130.7187342967152 0 0 0
4084 273 4 0 -726.698007524587 1071.5142439479985 -1177.2313684389985 0 0 0
4181 279 11 1 -588.0954224109034 1109.0640395581047 -1176.5400587589759 0 0 0
4179 279 9 0 -541.9543831848961 1099.781094049328 -1129.7343881960505 0 0 0
4898 327 8 0 -899.5342479619178 1136.2446014898508 -1140.1880615504033 0 0 0
4895 327 5 0 -834.0164220605429 1126.9224046381432 -1167.15122919716 0 0 0
5640 376 15 0 -690.5182270653133 1182.233190510922 -1181.9191096114791 0 0 0
4897 327 7 2 -673.828691526904 1137.8729661199632 -1199.9423258353693 0 0 0
4901 327 11 1 -624.0162611706286 1150.4040158389914 -1185.4914486711805 0 0 0
5639 376 14 -1.5 -634.3240693138993 1144.9709149150672 -1193.1527479450074 0 0 0
5375 359 5 0 -617.4921569642775 1194.2871188514905 -1166.5996312627246 0 0 0
4899 327 9 0 -557.3874572071211 1158.7545854146579 -1178.0763876156163 0 0 0
4896 327 6 -0.5 -504.1478254766472 1154.5804275945766 -1181.1788089198026 0 0 0
4904 327 14 -1.5 -464.8681366745345 1164.405573927583 -1162.5484287863276 0 0 0
5381 359 11 1 -414.9550353979622 1173.190085263949 -1198.2538688826712 0 0 0
5385 359 15 0 -295.26001129184465 1163.4583839259321 -1164.253263011586 0 0 0
5376 359 6 -0.5 -298.40175238339594 1192.1234629223413 -1190.887313431006 0 0 0
5372 359 2 0 -242.0274288613566 1179.969233144364 -1128.2490621392988 0 0 0
4363 291 13 -0.5 -2324.554733817698 1235.3293509607302 -1129.0403085841342 0 0 0
4353 291 3 -1.5 -2296.7146376035666 1267.878016864615 -1134.751375078992 0 0 0
4233 283 3 -1.5 -2248.7110571257303 1208.3018989582163 -1182.0521461613414 0 0 0
4242 283 12 0 -2215.5820140973997 1243.1072286066888 -1184.205502288349 0 0 0
4360 291 10 1 -2180.372096477619 1255.9730594581595 -1143.6200569119223 0 0 0
4362 291 12 0 -2245.515603264482 1266.5967900644002 -1150.8211957895685 0 0 0
4240 283 10 1 -2151.046125999843 1252.3229168094156 -1177.6793747062725 0 0 0
4357 291 7 2 -2119.4999840154237 1254.9108195931585 -1134.1235579133604 0 0 0
4237 283 7 2 -2093.262000409024 1266.1065574695365 -1163.3068613601977 0 0 0
4267 285 7 2 -457.28678656465866 1200.4552970931252 -1192.6525970720702 0 0 0
4905 327 15 0 -509.3027049973746 1217.0015215756403 -1164.0299999474253 0 0 0
4892 327 2 0 -441.0141245007778 1247.7054951713083 -1153.068750706198 0 0 0
4271 285 11 1 -405.2571262779876 1210.862065941424 -1183.0158464819733 0 0 0
4894 327 4 0 -386.1980954034434 1244.9695579371803 -1157.9965527976476 0 0 0
4269 285 9 0 -341.2589933849988 1229.706527106844 -1187.1190674209724 0 0 0
5384 359 14 -1.5 -260.33926299190165 1215.6734155361573 -1194.3147688545907 0 0 0
4275 285 15 0 -278.54520572884684 1210.4889666342274 -1149.400409000767 0 0 0
4241 283 11 1 -2043.8376909122294 1284.900396626084 -1151.8640756244852 0 0 0
4239 283 9 0 -1992.1505167555222 1320.3782863184103 -1132.873485556342 0 0 0
4236 283 6 -0.5 -1941.2811849715129 1338.26542776457 -1129.3060271554384 0 0 0
4355 291 5 0 -2256.775227810773 1365.014383395159 -1196.5669361682915 0 0 0
4245 283 15 0 -1966.2056602753496 1361.8225687132049 -1169.2804370450278 0 0 0
3619 242 4 0 -92.23396145599308 -1443.803283515196 -1095.3419253039044 0 0 0
1163 78 8 0 -1481.9376315467023 -1328.8177177436528 -1088.8622209551374 0 0 0
1156 78 1 0 -1445.7519354826318 -1273.473164814108 -1080.1703495239835 0 0 0
3770 252 5 0 -1958.2824527791058 -1067.9299102031669 -1109.57680301331 0 0 0
2668 178 13 -0.5 -247.40565955130256 -926.0510124750914 -1076.297599514308 0 0 0
2658 178 3 -1.5 -253.35519858202738 -909.9823271294122 -1115.124701539311 0 0 0
2656 178 1 0 -287.9621360513915 -689.1322780564891 -1072.7140380708875 0 0 0
5533 369 13 -0.5 -2648.5872044064145 -650.0984715906469 -1114.8501442365368 0 0 0
5523 369 3 -1.5 -2615.63993020795 -651.9461039286264 -1088.0921145924642 0 0 0
5532 369 12 0 -2590.4036742850217 -621.6607882105334 -1056.093514031922 0 0 0
1618 108 13 -0.5 -1567.7082334378576 -614.7682872999814 -1089.5625547671568 0 0 0
1608 108 3 -1.5 -1544.4416114333796 -601.5813852568485 -1122.838137348127 0 0 0
1610 108 5 0 -1516.2797549195107 -544.5497243941563 -1116.455303413847 0 0 0
1615 108 10 1 -1436.7027795664037 -575.3312341383831 -1123.0374299245802 0 0 0
1612 108 7 2 -1376.66870263145 -564.3352902202429 -1118.511759255227 0 0 0
1616 108 11 1 -1324.7402953125443 -550.9947884581546 -1118.4337280880443 0 0 0
253 17 13 -0.5 -1337.097044215354 -546.6037291774323 -1116.3003207806214 0 0 0
1614 108 9 0 -1258.8624434528506 -552.7969737878653 -1112.4847679229804 0 0 0
1611 108 6 -0.5 -1208.729771128585 -558.0322590998379 -1093.1050902040097 0 0 0
1619 108 14 -1.5 -1180.7156631484888 -543.903704908482 -1061.3840114961451 0 0 0
925 62 10 1 -900.7788914178358 -560.7040091139993 -1051.4373145384457 0 0 0
1613 108 8 0 -1517.882205118082 -481.3864701177032 -1090.8931816788058 0 0 0
243 17 3 -1.5 -1314.236005815344 -511.05540128192797 -1124.0527617218324 0 0 0
252 17 12 0 -1267.5368143387695 -497.71274245436445 -1118.7402137589136 0 0 0
250 17 10 1 -1206.7613062807236 -508.1179560249288 -1096.3340012721528 0 0 0
247 17 7 2 -1151.3278530303892 -518.5789785212338 -1070.6701349309787 0 0 0
930 62 15 0 -701.7851579081052 -458.67559012151 -1057.5504545277558 0 0 0
917 62 2 0 -646.6166083559125 -464.1265622252519 -1085.462116606614 0 0 0
1606 108 1 0 -1505.622241205015 -427.3234365677694 -1114.0006276589565 0 0 0
1609 108 4 0 -1110.126298275402 -449.4003603569996 -1120.1016315650375 0 0 0
919 62 4 0 -605.5887498578941 -437.01083458480974 -1111.6457047953254 0 0 0
5443 363 13 -0.5 -500.0956612801187 -238.07049967437896 -1098.987582740182 0 0 0
5433 363 3 -1.5 -470.9773598256528 -234.74843374019395 -1068.3824272174015 0 0 0
3390 226 15 0 -464.3588920566859 -215.8452823496435 -1112.6283472196528 0 0 0
3381 226 6 -0.5 -479.7132434768783 -176.8585282899985 -1076.0774363164078 0 0 0
3384 226 9 0 -510.386723473949 -216.15961885034065 -1059.4168183431673 0 0 0
3389 226 14 -1.5 -445.9908421057967 -169.04630235326974 -1103.4425867069385 0 0 0
3133 209 13 -0.5 -1193.454924390055 -102.52145158057517 -1084.9236841255718 0 0 0
3123 209 3 -1.5 -1165.8252775378578 -73.58272351717005 -1100.0991761973132 0 0 0
3132 209 12 0 -1135.6236954418987 -38.318771757038235 -1082.3100519929524 0 0 0
3130 209 10 1 -1076.0179757799715 -24.850658592523715 -1064.221989746386 0 0 0
3127 209 7 2 -1015.207073067574 -13.478398688039485 -1066.2069317237037 0 0 0
3131 209 11 1 -961.181525117522 -5.384970622229847 -1068.1487936020692 0 0 0
3129 209 9 0 -895.8992543957938 -15.958260672667791 -1068.714723179493 0 0 0
3135 209 15 0 -857.5601933154641 -14.805465572443124 -1112.7646429707756 0 0 0
647 44 2 0 -145.68177545580437 -21.679546599723317 -1106.8772773886817 0 0 0
649 44 4 0 -104.45703175147646 -58.5813303339637 -1096.0284130770751 0 0 0
3126 209 6 -0.5 -845.724339566513 1.6875237809316395 -1073.3177684068994 0 0 0
3134 209 14 -1.5 -813.714581333338 32.219682707597535 -1069.6371800713564 0 0 0
5070 338 15 0 -693.4530783263073 77.03737072143922 -1072.0564018436514 0 0 0
993 67 3 -1.5 -1050.19342082761 220.94534516994594 -1089.0550152944447 0 0 0
1003 67 13 -0.5 -1037.3457022034715 196.58282757606094 -1122.510573051945 0 0 0
1713 115 3 -1.5 -461.82658620016605 260.1460346809327 -1118.0868638936104 0 0 0
4306 288 1 0 -17.562048252697927 241.52013308065665 -1080.7279341350145 0 0 0
991 67 1 0 -1204.0321849402105 352.1796795450516 -1075.2936189443267 0 0 0
1291 87 1 0 -1182.5357359758218 334.72274453807194 -1107.2584477249636 0 0 0
1298 87 8 0 -1195.608849676209 402.8899294788192 -1093.9397095747383 0 0 0