LAMMPS data file via write_data, version 27 Jun 2024, timestep = 22080000, units = real

5730 atoms
15 atom types
5607 bonds
16 bond types
5730 angles
15 angle types

-3000 3000 xlo xhi
-1500 1500 ylo yhi
-1500 1500 zlo zhi

Masses

1 241.19
2 73.54000000000001
3 330.71
4 235.16
5 68.06999999999999
6 353.53
7 223.38
8 41.1
9 216.91
10 155.15
11 147.32
12 264.65
13 300.8
14 326.05
15 85.20999999999999

Pair Coeffs # lj/cut/coul/debye/gpu

1 0.71637 40.7505
2 0.665709 48.1397
3 1.15033 39.2216
4 0.726774 43.8077
5 0.514724 53.3428
6 1.17127 41.7847
7 1.2256 38.5601
8 0.675431 54.5696
9 1.26117 43.78
10 0.939007 42.5209
11 0.960667 41.1825
12 1.30988 48.0761
13 1.36645 37.7114
14 1.35529 39.2179
15 0.592003 47.2602

Bond Coeffs # harmonic

1 0.003 59.228
2 0.008 56.48
3 0.001 69.324
4 3.207 42.88
5 0.11 49.807
6 0.002 74.968
7 0.001 91.635
8 0.145 54.383
9 2.709 44.406
10 1.71 61.679
11 1.625 54.051
12 0.207 66.185
13 0.002 64.76
14 0.079 63.886
15 0.2 40
16 0.2 40

Angle Coeffs # harmonic

1 11.427 158.273
2 50.464 132.042
3 8.207 156.514
4 92.705 149.394
5 100 174.44
6 3.15 145.53
7 48.938 159.031
8 17.401 129.945
9 15.735 56.441
10 60 172.254
11 60.285 168.396
12 11.83 99.091
13 150 107.995
14 27.746 149.925
15 7.483 160.775

Atoms # full

2410 161 10 1 -2297.769446459346 -1431.8794904700244 -1431.2034819158773 0 0 0
2412 161 12 0 -2289.783375104418 -1424.017367192244 -1493.5504486395794 0 0 0
3769 252 4 0 -1542.7054351263505 -1315.190557704052 -1451.5078138257832 0 0 0
2561 171 11 1 -1104.9331897564205 -1294.6418647372834 -1473.3696525197386 0 0 1
3767 252 2 0 -1581.540812181909 -1266.3098663931758 -1448.2100666949116 0 0 0
3780 252 15 0 -1627.7597069555259 -1240.2711312731087 -1441.815996595338 0 0 0
2558 171 8 0 -1353.9885134647761 -1219.143863653494 -1466.0697228211188 0 0 1
2555 171 5 0 -1317.022675970237 -1230.8715996422832 -1440.695348655391 0 0 1
2557 171 7 2 -1147.0373139020096 -1274.8503592430568 -1446.0570226862797 0 0 1
1082 73 2 0 -2488.167280729041 -1141.5861504455816 -1470.8956996399772 0 0 1
1815 121 15 0 -2683.8414144343164 -637.4187627839705 -1476.3229365730185 0 0 0
5702 381 2 0 -350.87852028301575 -535.058443677827 -1436.6899169736828 0 0 1
973 65 13 -0.5 -2717.7256632923627 -410.2869876491893 -1460.5682136354737 0 0 0
963 65 3 -1.5 -2689.6645176215084 -381.63924146844386 -1445.560575040426 0 0 0
2594 173 14 -1.5 -1642.324763723791 -322.04103404306693 -1448.3323563878519 0 0 1
964 65 4 0 -2290.8674360282844 -274.0063433551597 -1435.259229589108 0 0 0
2586 173 6 -0.5 -1606.8401421519623 -296.8147572353051 -1454.8767218853816 0 0 1
2589 173 9 0 -1583.853503599877 -254.6756911628786 -1475.1123402512942 0 0 1
1079 72 14 -1.5 -405.88401185546223 -218.43922358749376 -1495.4797800756946 0 0 1
1062 71 12 0 -689.6739571869623 336.3513031474796 -1428.9004847681354 0 0 0
1418 95 8 0 -1615.9215351004605 440.6485692827084 -1440.179926052291 0 0 0
1411 95 1 0 -1550.2923256389274 409.0880026075284 -1460.2609944427159 0 0 0
5288 353 8 0 -2771.676487017465 586.6526004261526 -1474.4017904063596 0 0 1
5281 353 1 0 -2762.771213821127 527.174985685418 -1445.5313074679675 0 0 1
4927 329 7 2 -1864.3032954790226 565.5692718129189 -1440.0472695301908 0 0 0
4930 329 10 1 -1854.7229638177646 579.8282200179497 -1499.089557914823 0 0 0
1425 95 15 0 -1785.7870934717503 802.0097945073883 -1430.5112392898036 0 0 0
1412 95 2 0 -1759.3893544436276 869.4812802994428 -1472.5005815601276 0 0 0
1414 95 4 0 -1744.545968023714 929.1825885822176 -1469.226771335927 0 0 0
4477 299 7 2 -2032.3195773991667 1089.1535562072131 -1471.3196067440372 0 0 0
4364 291 14 -1.5 -2025.0756762252925 1068.711528297347 -1437.872696743742 0 0 0
4365 291 15 0 -2030.2367656580138 1141.0240877189399 -1465.8367121719948 0 0 0
4245 283 15 0 -1987.1169051180962 1146.2366964372393 -1429.8851885443223 0 0 0
4232 283 2 0 -1910.168170707973 1149.8816268910014 -1471.905764294496 0 0 0
2407 161 7 2 -2289.2056021757126 -1443.0671512394829 -1370.7727495496147 0 0 0
3775 252 10 1 -1847.7478172930944 -1250.9219817523767 -1358.5013399302538 0 0 0
3776 252 11 1 -1738.918343488714 -1229.263291229601 -1389.5010112437076 0 0 0
3772 252 7 2 -1790.7383228212566 -1237.8976273992062 -1377.5552963169212 0 0 0
3774 252 9 0 -1673.9942551670624 -1220.9410906574687 -1391.4274606676465 0 0 0
3771 252 6 -0.5 -1623.349932921475 -1208.4549687306292 -1376.4779853132022 0 0 0
2562 171 12 0 -1240.9462615274824 -1222.156230282939 -1383.49493517008 0 0 1
2560 171 10 1 -1192.0757776869807 -1246.8641199805966 -1415.0404928613218 0 0 1
1084 73 4 0 -2465.0890055354103 -1160.1173212180443 -1406.2132565428187 0 0 1
3779 252 14 -1.5 -1596.864929417507 -1177.724689625337 -1358.6484287836258 0 0 0
1806 121 6 -0.5 -2634.244770847241 -633.6270160389662 -1399.4636299071426 0 0 0
1814 121 14 -1.5 -2617.962692641673 -674.4161905311905 -1398.6006698242934 0 0 0
1809 121 9 0 -2631.906339939922 -581.7626065355366 -1411.4981927900817 0 0 0
5704 381 4 0 -374.2866913806441 -540.0269829649029 -1388.4270217784238 0 0 1
1811 121 11 1 -2632.352231733702 -517.2674525165057 -1401.6587462426896 0 0 0
1807 121 7 2 -2621.906667439923 -466.36146916127984 -1388.278586373908 0 0 0
245 17 5 0 -1269.605367143151 -470.02191122577347 -1351.883671641958 0 0 0
1810 121 10 1 -2609.7590315244265 -412.47489690487447 -1360.9601384117866 0 0 0
248 17 8 0 -1305.772727334382 -445.106733259112 -1407.0682669589573 0 0 0
241 17 1 0 -1345.2636502313208 -420.9882996122469 -1420.1941823773366 0 0 0
972 65 12 0 -2674.3551490611344 -370.8670791762039 -1399.4027324283973 0 0 0
970 65 10 1 -2620.1812194345307 -343.8036876446893 -1365.8818971992957 0 0 0
962 65 2 0 -2327.126246413828 -284.3314832061344 -1393.2753162665094 0 0 0
975 65 15 0 -2399.8306124982796 -261.5488889894598 -1356.1442364210009 0 0 0
2595 173 15 0 -1590.743893609378 -259.6228759828638 -1391.009047871308 0 0 1
1063 71 13 -0.5 -735.4460814393652 266.5873764782688 -1423.8169591358708 0 0 0
1053 71 3 -1.5 -726.6551655830604 308.1436136201639 -1415.8826006565057 0 0 0
1060 71 10 1 -633.6526926329075 368.9817066511395 -1418.3817508057348 0 0 0
1723 115 13 -0.5 -589.026189550059 381.65505737933876 -1372.182425685302 0 0 0
1057 71 7 2 -589.6355722231339 408.73409489050533 -1402.4370379560971 0 0 0
1713 115 3 -1.5 -577.1365490333411 422.11307562435496 -1364.2269807445696 0 0 0
1061 71 11 1 -551.0194021892672 442.33803080828864 -1386.054218422197 0 0 0
1054 71 4 0 -329.8622576538205 401.9179505602813 -1364.0015285993454 0 0 0
1415 95 5 0 -1645.4599445231895 514.4649159215356 -1416.4384872161806 0 0 0
1059 71 9 0 -497.84334613136696 479.0793814107496 -1381.0633629455442 0 0 0
1056 71 6 -0.5 -467.8221127777673 523.1787486620112 -1361.8609365638576 0 0 0
1065 71 15 0 -435.862217979628 462.95410262698294 -1368.5653082731292 0 0 0
1717 115 7 2 -422.97126780330865 504.95911158003094 -1351.8791489903138 0 0 0
1721 115 11 1 -372.327184011238 523.3135377621016 -1356.6062612513115 0 0 0
1716 115 6 -0.5 -261.2629214579469 519.5854993632429 -1392.8673928203539 0 0 0
1724 115 14 -1.5 -235.76082582616465 495.8217276413427 -1420.4866288070525 0 0 0
4931 329 11 1 -1869.6402490087069 556.7296240343402 -1387.1756510896146 0 0 0
1719 115 9 0 -309.52425160530737 529.8900870489529 -1369.9716120741973 0 0 0
1417 95 7 2 -1729.3506095997068 663.8915298119967 -1374.1636642338237 0 0 0
1420 95 10 1 -1689.498045316532 621.1474875783185 -1355.2439400619342 0 0 0
1421 95 11 1 -1758.7452408328875 705.7042471919199 -1392.684820871646 0 0 0
1416 95 6 -0.5 -1823.073136613132 806.5287633667105 -1386.7417706969673 0 0 0
1419 95 9 0 -1799.7387202532518 758.5602715073182 -1397.145479590879 0 0 0
1424 95 14 -1.5 -1856.7679780966414 833.7342201575638 -1395.89703694647 0 0 0
4244 283 14 -1.5 -2059.252880077761 1100.0928005117541 -1419.0738005340052 0 0 0
4236 283 6 -0.5 -2045.4332779133651 1112.3483712390391 -1379.043158965266 0 0 0
4481 299 11 1 -2011.6531612754834 1101.7145508048234 -1422.5638753295611 0 0 0
4356 291 6 -0.5 -2013.998373170617 1106.2969985605332 -1417.1757877834207 0 0 0
4479 299 9 0 -2001.179680983264 1107.739076524149 -1358.2152875703296 0 0 0
4359 291 9 0 -2031.5902767454565 1155.0677870850736 -1401.9493793212746 0 0 0
4361 291 11 1 -2033.8733623181904 1206.0134122304896 -1360.6470028136214 0 0 0
2411 161 11 1 -2274.592296067988 -1452.1922403322903 -1320.2085356146579 0 0 0
3778 252 13 -0.5 -1943.6258658438408 -1333.0881348731893 -1326.961420162659 0 0 0
3768 252 3 -1.5 -1934.795535217666 -1293.7546890163171 -1311.5853385245473 0 0 0
3777 252 12 0 -1902.1892385818467 -1262.8450528639953 -1327.7333810611246 0 0 0
2563 171 13 -0.5 -1279.2024090739717 -1214.908963826613 -1315.5797006484154 0 0 1
3770 252 5 0 -1957.9022524247803 -1177.0759632006436 -1344.4764302319204 0 0 0
2553 171 3 -1.5 -1256.1573782906223 -1195.7245208474312 -1346.041639327287 0 0 1
3773 252 8 0 -1997.773008306424 -1088.3676348938677 -1308.028162511929 0 0 0
3766 252 1 0 -1984.6628728941153 -1028.6799450940914 -1300.6523641614958 0 0 0
252 17 12 0 -1233.7268094366168 -544.3896511549849 -1276.1886427846582 0 0 0
5533 369 13 -0.5 -2779.566876516775 -498.08315250744994 -1306.4982725981292 0 0 0
5523 369 3 -1.5 -2776.9189557178743 -466.6343548732596 -1278.2879970940658 0 0 0
968 65 8 0 -2850.908249568935 -330.4671226769179 -1322.2453847884403 0 0 0
965 65 5 0 -2764.0019523066658 -333.17755667006213 -1345.5151695141697 0 0 0
1805 121 5 0 -2681.174720274621 -312.60988131076294 -1294.9233440718504 0 0 0
967 65 7 2 -2568.7420433770667 -313.6031885668714 -1348.332033662424 0 0 0
2938 196 13 -0.5 -2601.976754379843 -319.88745272949205 -1326.6693740021474 0 0 0
1812 121 12 0 -2594.511851823479 -364.2150693188696 -1324.4637041863516 0 0 0
1803 121 3 -1.5 -2565.9176314439815 -332.40338135469017 -1302.8175480136026 0 0 0
961 65 1 0 -2879.2552697099727 -297.03299987830707 -1292.9889691637093 0 0 0
1808 121 8 0 -2735.4098263871188 -254.8638618135582 -1289.9789267936487 0 0 0
2928 196 3 -1.5 -2591.1653250700515 -299.8480980447498 -1290.0879703304986 0 0 0
971 65 11 1 -2521.2753656999835 -292.11477270393124 -1335.0700495402207 0 0 0
1813 121 13 -0.5 -2547.3069600128865 -298.0198670799794 -1319.0058045451553 0 0 0
969 65 9 0 -2456.2014800252846 -280.24334914901425 -1323.276569020915 0 0 0
966 65 6 -0.5 -2417.684204020331 -254.78539247179773 -1302.0719020442664 0 0 0
2932 196 7 2 -2436.9523262970392 -241.3454642283264 -1287.2224108703228 0 0 0
2940 196 15 0 -2263.679784447999 -234.94426405870544 -1297.1106345837384 0 0 0
2927 196 2 0 -2213.3322878784597 -241.4910241788087 -1307.2289913655832 0 0 0
2929 196 4 0 -2175.8451498548425 -246.75327383796028 -1348.683510475576 0 0 0
2582 173 2 0 -1603.079131628054 -238.9138052376325 -1335.9087223939564 0 0 1
2584 173 4 0 -1633.877313134303 -232.55033095337424 -1287.8480065030049 0 0 1
1801 121 1 0 -2739.731874247736 -211.81336288494026 -1346.0802275279862 0 0 0
2936 196 11 1 -2387.8322622273945 -222.79414417157133 -1298.4326540148888 0 0 0
2934 196 9 0 -2322.4552258902254 -211.29995370835545 -1304.3995117706572 0 0 0
2931 196 6 -0.5 -2277.760529879538 -216.15269700678303 -1336.229824375174 0 0 0
2939 196 14 -1.5 -2237.9460360132616 -203.68591029245928 -1349.7606143142618 0 0 0
658 44 13 -0.5 -254.3479087953623 -133.53087336099696 -1281.9173509320758 0 0 0
650 44 5 0 -145.54607113298158 -89.6488761260005 -1284.8829673568152 0 0 0
646 44 1 0 -34.41561964224385 -5.677266611067281 -1304.2005877614795 0 0 0
1715 115 5 0 -533.5341024095591 377.1654772376336 -1279.5183350432724 0 0 0
1722 115 12 0 -537.599579816346 445.28589809514165 -1340.5021959490418 0 0 0
1052 71 2 0 -374.6399426522086 431.1471502950729 -1342.846501882174 0 0 0
1720 115 10 1 -476.11965244733966 474.7772957947953 -1343.8624442891405 0 0 0
1725 115 15 0 -260.3804141335134 490.57438445558995 -1347.4375553339719 0 0 0
1714 115 4 0 -157.28554633560154 471.3800372197906 -1292.157683658557 0 0 0
1712 115 2 0 -192.58337717868923 488.0095636786046 -1321.6496627631425 0 0 0
4929 329 9 0 -1889.5317883761543 548.4507278648033 -1325.7366117148024 0 0 0
4935 329 15 0 -1928.0976019910568 566.8942941952183 -1308.752951235996 0 0 0
1422 95 12 0 -1648.5527228868423 569.044055147093 -1340.7643714664669 0 0 0
1413 95 3 -1.5 -1618.0968794598793 551.0753584960305 -1308.377773376815 0 0 0
1064 71 14 -1.5 -435.9082646169801 539.7404930939804 -1336.7548234723167 0 0 0
4922 329 2 0 -1986.8317036077726 647.56933687738 -1302.1915306850776 0 0 0
4081 273 1 0 -1138.4803202312985 820.0166646739887 -1303.961890784875 0 0 0
4088 273 8 0 -1092.6343065207097 833.8652297062429 -1278.8936973126335 0 0 0
4485 299 15 0 -1978.4101551107274 1067.482578587795 -1298.9977096978644 0 0 0
4239 283 9 0 -2029.0111051042559 1151.4944678010077 -1346.7592665467073 0 0 0
4476 299 6 -0.5 -1993.2740821348636 1133.0786092753256 -1311.0573848311294 0 0 0
4484 299 14 -1.5 -1964.1869287341528 1155.0808111569406 -1285.9001792141173 0 0 0
4357 291 7 2 -2049.52654739213 1245.8950984624744 -1327.5250729466181 0 0 0
4237 283 7 2 -2037.0531379099077 1255.846352607286 -1289.5553374106134 0 0 0
4241 283 11 1 -2023.9155383518328 1210.519451523735 -1315.9043533459233 0 0 0
4360 291 10 1 -2063.069993159929 1292.6554301635208 -1288.1061858413052 0 0 0
2409 161 9 0 -2244.152696908201 -1473.8162034637721 -1267.5332836797938 0 0 0
2415 161 15 0 -2222.9993225710273 -1444.353565828536 -1216.91682647178 0 0 0
3617 242 2 0 -36.17037987661701 -1409.7395683698771 -1239.3729179935924 0 0 0
3623 242 8 0 -471.94742635078 -1275.4711541499453 -1222.0688166738416 0 0 0
3616 242 1 0 -507.1432288508108 -1273.1194545534133 -1271.2331323704996 0 0 0
2656 178 1 0 -230.8850142439942 -938.7982575865121 -1255.087511634754 0 0 0
2663 178 8 0 -198.202100672494 -951.7269940480671 -1208.6708214936746 0 0 0
2803 187 13 -0.5 -16.51864446597183 -706.6992938436179 -1223.64919478572 0 0 0
5521 369 1 0 -2869.6115604732777 -658.4498899250793 -1235.5223877489125 0 0 0
1617 108 12 0 -1449.8686376588898 -612.7009154877472 -1214.772434343353 0 0 0
2926 196 1 0 -2500.1947150117057 -532.0986599898099 -1230.8598675387143 0 0 0
1610 108 5 0 -1514.2222560698015 -541.0274011708178 -1220.8578289083466 0 0 0
1615 108 10 1 -1390.3304073332738 -586.1097218554997 -1220.163938567037 0 0 0
243 17 3 -1.5 -1278.6535778939706 -557.5121226365954 -1264.4596670270244 0 0 0
1612 108 7 2 -1332.4344807730004 -567.128823440152 -1217.616953815717 0 0 0
1616 108 11 1 -1280.313182996669 -555.4243225048168 -1216.428687678794 0 0 0
253 17 13 -0.5 -1303.9028833519094 -540.56428900581 -1234.6702626343324 0 0 0
1614 108 9 0 -1219.7511547152444 -528.7495051527458 -1216.9532795594266 0 0 0
1609 108 4 0 -1058.7411562010407 -543.4000122902117 -1269.2230621393733 0 0 0
1607 108 2 0 -1098.3342904462538 -546.1662579217625 -1224.912920153573 0 0 0
5532 369 12 0 -2752.7297325563013 -461.80541941836253 -1233.0497731011146 0 0 0
2933 196 8 0 -2533.25889719295 -484.74203586273023 -1217.1497104015168 0 0 0
1613 108 8 0 -1531.159392951449 -478.36064839896335 -1231.5177371161715 0 0 0
250 17 10 1 -1178.8750703071646 -520.8529382590156 -1249.3844041488924 0 0 0
1611 108 6 -0.5 -1171.0847053647947 -512.5361487334441 -1238.6729390570447 0 0 0
1619 108 14 -1.5 -1141.387257056019 -479.92212057377077 -1245.9298631347694 0 0 0
247 17 7 2 -1128.8723227119772 -502.71100218483167 -1217.722587414411 0 0 0
916 62 1 0 -1054.1728696521386 -502.22012209766854 -1241.7548752118696 0 0 0
2930 196 5 0 -2541.810612882785 -416.65286405180046 -1243.4403279053035 0 0 0
1606 108 1 0 -1476.2849865994433 -434.3367216063415 -1252.279570967082 0 0 0
923 62 8 0 -1025.3090601978045 -440.7489437191595 -1241.1842163271049 0 0 0
2935 196 10 1 -2489.2497635659765 -271.10728615749133 -1273.1777001899807 0 0 0
2937 196 12 0 -2547.4656736006636 -295.9549793527855 -1268.1470247811342 0 0 0
974 65 14 -1.5 -2404.788212876959 -223.33535471676277 -1273.2729703444757 0 0 0
648 44 3 -1.5 -225.58143912476206 -155.26090315640064 -1259.7373484904854 0 0 0
3128 209 8 0 -1281.73122553515 -106.45115276086618 -1253.289555838402 0 0 0
3121 209 1 0 -1235.4164486393313 -140.65705453100423 -1261.8008368823962 0 0 0
657 44 12 0 -183.83652996655587 -145.95187521757572 -1236.6514332601935 0 0 0
653 44 8 0 -84.63376056833121 -19.699596267384887 -1270.97036236843 0 0 0
1718 115 8 0 -568.8998234173928 333.50345852128936 -1231.0735355056725 0 0 0
4926 329 6 -0.5 -1886.7253852594213 554.9943893094992 -1269.8390446615088 0 0 0
4934 329 14 -1.5 -1876.4758636314605 539.5745319492972 -1229.6916300653893 0 0 0
1423 95 13 -0.5 -1614.6153232913957 549.5195784834326 -1266.0119651040648 0 0 0
4924 329 4 0 -2024.2350324473123 678.507417896087 -1269.6326650655033 0 0 0
4066 272 1 0 -2628.1818167745873 813.8628875968475 -1221.8737642500928 0 0 0
4663 311 13 -0.5 -1297.2414281846375 822.5594167439982 -1219.8435866397697 0 0 0
4653 311 3 -1.5 -1258.9920296032954 838.0442009804244 -1231.1963501179266 0 0 0
4662 311 12 0 -1244.3223506704194 885.083029625688 -1223.91339848507 0 0 0
4085 273 5 0 -1063.9119845319456 894.3370156777169 -1234.2362917461876 0 0 0
4660 311 10 1 -1199.143246120491 920.1999999362248 -1202.3345024127218 0 0 0
4093 273 13 -0.5 -1156.8306027858646 969.3532195045136 -1213.8463756886244 0 0 0
4472 299 2 0 -1927.5433813361285 1020.1547112677313 -1266.0306523141146 0 0 0
4474 299 4 0 -1899.0161824762936 985.0701549895922 -1251.6775927260246 0 0 0
4652 311 2 0 -919.0994819374013 1009.982008714471 -1204.697075945057 0 0 0
4654 311 4 0 -882.220153368323 1018.6899100230079 -1233.06272925609 0 0 0
4171 279 1 0 -859.51185640641 1247.4241344554334 -1247.0760727404554 0 0 0
5372 359 2 0 -328.1807277249739 1264.2579561096727 -1208.0709322801185 0 0 0
5374 359 4 0 -302.0840459202674 1210.5212540158705 -1225.9239611475962 0 0 0
4358 291 8 0 -2223.443235596306 1306.3649255203795 -1226.3954388021364 0 0 0
4355 291 5 0 -2155.1057113018455 1305.2501958407893 -1206.1821960948719 0 0 0
4362 291 12 0 -2079.1616346870624 1331.9538676908583 -1239.5855181442155 0 0 0
4240 283 10 1 -2042.0067611274399 1303.4118788462756 -1251.1346062197952 0 0 0
4242 283 12 0 -2044.9448514958679 1344.8425312266827 -1203.133684515426 0 0 0
4353 291 3 -1.5 -2082.398004502559 1377.240777808813 -1216.5911904896434 0 0 0
4894 327 4 0 -539.7149663191113 1416.18441241622 -1209.9977495079722 0 0 0
2414 161 14 -1.5 -2240.806753715013 1450.539854385946 -1211.0735760136522 0 -1 0
2406 161 6 -0.5 -2236.8198624632246 1491.4208498372282 -1227.180740953775 0 -1 0
2402 161 2 0 -2209.6873108383415 -1442.688354246191 -1126.3204708453404 0 0 0
3621 242 6 -0.5 -148.2231883812755 -1464.131058682337 -1181.3645186431993 0 0 0
3629 242 14 -1.5 -130.78079329622526 -1499.1627835883858 -1159.6993175228317 0 0 0
3624 242 9 0 -180.06818125324247 -1419.2347695552517 -1181.7437272892296 0 0 0
3626 242 11 1 -219.2030703167519 -1372.7842780280052 -1160.8079869063968 0 0 0
3630 242 15 0 -100.30443780324975 -1421.7237903278137 -1199.6531047220112 0 0 0
3625 242 10 1 -306.1397996143066 -1305.0584566960767 -1125.9987026111726 0 0 0
3622 242 7 2 -258.6620410936429 -1338.9849038827783 -1145.859033818849 0 0 0
3620 242 5 0 -419.47348493190924 -1256.0273737955151 -1187.8454826378195 0 0 0
2662 178 7 2 -52.70996026754297 -788.6188022402589 -1131.9676591308748 0 0 0
2666 178 11 1 -20.382623742198355 -759.3051768938642 -1163.7715549234713 0 0 0
5528 369 8 0 -2827.2152435088506 -653.1660646710392 -1189.4129793277002 0 0 0
1618 108 13 -0.5 -1514.0247186345732 -652.7717626751835 -1185.1073895851173 0 0 0
1608 108 3 -1.5 -1483.2576900169986 -623.5033548232848 -1182.5939666776674 0 0 0
5525 369 5 0 -2778.648571225981 -566.7915349722055 -1195.6160845021516 0 0 0
1620 108 15 0 -1161.0355232652084 -543.5884850357759 -1196.6330815985275 0 0 0
251 17 11 1 -1082.9062405411128 -490.9723525801318 -1192.0381195374118 0 0 0
249 17 9 0 -1033.162621752888 -468.1110398699512 -1157.5938556719648 0 0 0
246 17 6 -0.5 -983.6730374496685 -450.86095100206694 -1147.3669559147463 0 0 0
5530 369 10 1 -2709.863693513104 -437.54363783597006 -1198.9068802231445 0 0 0
5527 369 7 2 -2670.5174004563614 -413.46107260892666 -1158.7802840514762 0 0 0
5531 369 11 1 -2637.3556014283868 -387.83885979544533 -1125.7054512452698 0 0 0
920 62 5 0 -958.6199865033792 -410.513492962758 -1185.7176042868407 0 0 0
254 17 14 -1.5 -953.8044696104267 -422.91653051769896 -1130.9694640437235 0 0 0
3388 226 13 -0.5 -815.5872590479938 -288.5825273190065 -1126.4773020805244 0 0 0
652 44 7 2 -119.0719760825377 -161.57197409548013 -1131.8607366287936 0 0 0
3125 209 5 0 -1270.727440831648 -90.16398943245326 -1185.745213723988 0 0 0
5063 338 8 0 -1153.486412380172 -84.12252171313388 -1139.3788763331536 0 0 0
5059 338 4 0 -750.0878828343466 -145.3368759302728 -1196.5071115736714 0 0 0
5057 338 2 0 -759.8593810312831 -119.7750686611067 -1145.928631772177 0 0 0
655 44 10 1 -149.8770018399619 -148.81788961644023 -1182.6057939461575 0 0 0
5056 338 1 0 -1193.0118831915645 -62.29681256705649 -1155.2480590188766 0 0 0
1711 115 1 0 -572.2048670328337 317.3738531877951 -1181.0549157007774 0 0 0
5173 345 13 -0.5 -2107.057878149657 786.1353373574308 -1161.5191695056228 0 0 0
5163 345 3 -1.5 -2079.2457309704355 767.7674469660906 -1134.429406821348 0 0 0
4073 272 8 0 -2569.4450951460826 842.8995705120165 -1187.829938268473 0 0 0
4070 272 5 0 -2581.07476959176 883.4642489092449 -1125.5632225786796 0 0 0
4658 311 8 0 -1349.5512508017991 886.3678648815863 -1132.6100757312036 0 0 0
4655 311 5 0 -1291.9798759687867 875.871010128042 -1163.300723498812 0 0 0
4657 311 7 2 -1161.1796104574119 959.7313966029577 -1174.8465734413905 0 0 0
4083 273 3 -1.5 -1132.8852626216114 968.8835772442791 -1177.8026100455672 0 0 0
4092 273 12 0 -1085.5828745807871 962.4729237423928 -1164.596178863135 0 0 0
4661 311 11 1 -1123.0805853490524 988.1860873082849 -1148.9850456009685 0 0 0
4659 311 9 0 -1065.9140296045377 1012.5317436377121 -1125.2848991333653 0 0 0
4090 273 10 1 -1032.2705888613305 991.3543662103475 -1146.955837321109 0 0 0
4665 311 15 0 -1005.1957267324768 1017.9991937269855 -1175.7422466704209 0 0 0
5638 376 13 -0.5 -1007.0324404999988 1029.5385124711997 -1134.9539152738696 0 0 0
4664 311 14 -1.5 -977.4911005742422 1043.0956819873845 -1146.538848459124 0 0 0
4087 273 7 2 -974.8539838710614 1008.5496281261742 -1133.1594780954038 0 0 0
5628 376 3 -1.5 -972.6964201918317 1053.3270105982328 -1144.469424111251 0 0 0
4173 279 3 -1.5 -830.1894738247979 1123.1814978456143 -1134.396282791138 0 0 0
4903 327 13 -0.5 -830.4816108653288 1113.4275648921275 -1128.2411119922779 0 0 0
4095 273 15 0 -834.6855547976749 1062.2299318014227 -1134.5913619630753 0 0 0
4082 273 2 0 -756.2442484917932 1097.0340241089984 -1159.3949596809903 0 0 0
4893 327 3 -1.5 -789.760425627636 1101.105625459764 -1126.0829270151005 0 0 0
4084 273 4 0 -706.3308763101448 1123.219063230345 -1143.2042758831442 0 0 0
4175 279 5 0 -809.2916206953918 1198.7473521367012 -1162.978037438956 0 0 0
4182 279 12 0 -789.5214953823881 1149.4741782324375 -1132.2161526942564 0 0 0
4178 279 8 0 -867.840227199923 1216.2247459829525 -1189.931043204475 0 0 0
4898 327 8 0 -880.2241662625293 1249.7813359477636 -1136.3049381384214 0 0 0
4176 279 6 -0.5 -532.6785218913652 1259.1955139140953 -1140.7009154518591 0 0 0
5380 359 10 1 -561.2187264564604 1261.253171933805 -1125.0577192817086 0 0 0
4179 279 9 0 -562.888647201377 1213.4860702861436 -1127.2698866676733 0 0 0
4904 327 14 -1.5 -464.7553153821858 1259.0725872311828 -1138.9855574835997 0 0 0
5377 359 7 2 -501.84550220429355 1271.4385861823625 -1136.2110593063207 0 0 0
4174 279 4 0 -420.5830535399665 1257.4654976473846 -1133.404289191307 0 0 0
5376 359 6 -0.5 -335.9797323762416 1268.3939154408301 -1149.6661915649036 0 0 0
5384 359 14 -1.5 -293.5866603231358 1259.8315116637125 -1160.2926664183435 0 0 0
4351 291 1 0 -2259.7136131844686 1346.3821778675483 -1195.830178891058 0 0 0
5381 359 11 1 -451.8542439518896 1279.9062345107416 -1154.0782089467368 0 0 0
4184 279 14 -1.5 -513.7818779045494 1282.0381910284054 -1173.6866656520576 0 0 0
5379 359 9 0 -385.8855427876633 1280.9003612516117 -1162.2723999565712 0 0 0
4271 285 11 1 -426.07784903838876 1308.2056982347883 -1125.879045030577 0 0 0
5385 359 15 0 -365.0525621571361 1284.9609279340414 -1187.7849452191226 0 0 0
4266 285 6 -0.5 -307.8108194513584 1299.4148675683643 -1149.8236385546973 0 0 0
4269 285 9 0 -360.22874832863135 1310.7999184433877 -1134.7372297061897 0 0 0
4274 285 14 -1.5 -277.5659450599581 1303.248550520553 -1182.6891484243592 0 0 0
4238 283 8 0 -2177.5169056715727 1377.823198381445 -1148.8321916629393 0 0 0
4235 283 5 0 -2140.6751869668046 1363.7018414334655 -1185.7152183363878 0 0 0
4363 291 13 -0.5 -2071.1514956158826 1391.7596137630778 -1177.0505570145879 0 0 0
4243 283 13 -0.5 -2034.3332914223085 1422.441023780755 -1172.2871739444606 0 0 0
4233 283 3 -1.5 -2023.8616950879577 1381.735310666831 -1180.0508742663374 0 0 0
4261 285 1 0 -724.0989912280421 1372.1959075022069 -1167.7394265612882 0 0 0
4892 327 2 0 -543.8659861049773 1376.5421342139387 -1178.7948255190665 0 0 0
2404 161 4 0 -2192.117254173479 -1470.9311098622509 -1085.7779615966822 0 0 0
3628 242 13 -0.5 -421.57358730842253 -1280.9738363617146 -1054.908741664215 0 0 0
3618 242 3 -1.5 -390.9379098739495 -1256.1077240736327 -1072.109860314387 0 0 0
3627 242 12 0 -357.6505437570491 -1263.800863060716 -1110.4981165446773 0 0 0
2660 178 5 0 -185.89559931980327 -933.7174323650479 -1111.7218246517054 0 0 0
2667 178 12 0 -138.60693129883688 -838.170745601151 -1054.9927846917299 0 0 0
2665 178 10 1 -97.35306387783675 -809.5456647816188 -1094.426302021299 0 0 0
1313 88 8 0 -197.49168257636234 -685.087621294711 -1078.7503566795378 0 0 0
1306 88 1 0 -202.2685716042417 -641.0440389373588 -1052.5166580642538 0 0 0
3436 230 1 0 -2103.3634415112174 -584.9077167432022 -1056.2308890131 0 0 0
255 17 15 0 -1004.6778583299841 -495.22101278715775 -1089.9425625004912 0 0 0
928 62 13 -0.5 -973.9614816372944 -457.37748203233946 -1095.8519112131771 0 0 0
927 62 12 0 -913.6651723710297 -397.45455337724366 -1113.0167336342845 0 0 0
918 62 3 -1.5 -938.2714972961053 -433.6687969883638 -1087.8922945426643 0 0 0
5529 369 9 0 -2601.3050203456764 -360.7594901391602 -1074.2207535346352 0 0 0
925 62 10 1 -861.1053982585302 -362.80227196887216 -1120.1613757994187 0 0 0
922 62 7 2 -812.6601066247844 -324.85775666166774 -1119.752923868407 0 0 0
926 62 11 1 -766.4808531198672 -299.0031622053678 -1115.2570119797883 0 0 0
3378 226 3 -1.5 -773.5261848363054 -294.92437173830416 -1119.9112674487262 0 0 0
3387 226 12 0 -745.0400628967933 -266.15746252434957 -1092.7784379304169 0 0 0
924 62 9 0 -703.272535709526 -279.1469207108456 -1117.997415467411 0 0 0
3385 226 10 1 -691.2595864805312 -257.92605621821144 -1061.906364654053 0 0 0
930 62 15 0 -657.8170452521688 -288.4329942543756 -1069.9368369027568 0 0 0
921 62 6 -0.5 -657.9186342373835 -252.45371298346964 -1103.3409882328433 0 0 0
929 62 14 -1.5 -622.7307355814733 -246.15576063025642 -1076.6971957494009 0 0 0
656 44 11 1 -94.02107774782917 -177.45325387317897 -1087.5898055423359 0 0 0
3123 209 3 -1.5 -1311.7777550430405 -82.61992407387926 -1056.2872850106626 0 0 0
3130 209 10 1 -1210.6988984860623 -122.76923023447324 -1056.782694281236 0 0 0
3132 209 12 0 -1264.7309221669173 -96.62671412080536 -1072.7807609866236 0 0 0
5060 338 5 0 -1098.1255243730764 -85.41545089443792 -1097.4752097699427 0 0 0
5070 338 15 0 -809.0443691125889 -110.39447941494883 -1071.9756511310443 0 0 0
5431 363 1 0 -654.4992652425777 -60.93926791344623 -1052.2932604680273 0 0 0
1291 87 1 0 -1054.1609422344077 221.2626262755399 -1093.492227841962 0 0 0
1298 87 8 0 -1061.8549386074124 258.77795017016837 -1070.4244662227102 0 0 0
3021 202 6 -0.5 -410.22934719170024 442.81334930331735 -1066.1476105610875 0 0 0
3029 202 14 -1.5 -378.8548365871957 428.8344478905102 -1093.96901552056 0 0 0
4681 313 1 0 -2758.4286519921015 740.9748391962466 -1120.8503274350837 0 0 0
5165 345 5 0 -2066.0041601840267 697.5559883775517 -1061.1833998983213 0 0 0
4688 313 8 0 -2773.657382288201 760.702844670966 -1052.2690383725696 0 0 0
5172 345 12 0 -2069.192621439741 782.8899311381217 -1083.9561370820365 0 0 0
4651 311 1 0 -1380.7153568690765 904.8224876851933 -1107.2239107528405 0 0 0
4656 311 6 -0.5 -1013.3539819972486 1028.2335909499313 -1124.8051571775159 0 0 0
4091 273 11 1 -926.9618168373727 1029.13521640536 -1117.9060047979724 0 0 0
2178 146 3 -1.5 -973.357551443411 1045.5449970480636 -1094.7166805374718 0 0 0
2187 146 12 0 -949.1839562321883 1038.0672113170037 -1050.2557574170648 0 0 0
2188 146 13 -0.5 -1008.2208411926091 1067.4109609459028 -1106.6655267789758 0 0 0
5637 376 12 0 -943.2208948205146 1079.6862837679407 -1116.0387506104898 0 0 0
2180 146 5 0 -870.650232306742 1110.147989511749 -1057.1939497030414 0 0 0
4089 273 9 0 -869.7852423322831 1065.142479392156 -1115.6753093234288 0 0 0
5635 376 10 1 -888.3931907383409 1110.2562303690172 -1108.4795168813635 0 0 0
4086 273 6 -0.5 -822.3544498194076 1087.4146714499577 -1096.6099419526702 0 0 0
4094 273 14 -1.5 -798.803351436388 1123.0361610451962 -1084.085679080788 0 0 0
4902 327 12 0 -753.0141976694002 1114.8802008421776 -1101.1957242490657 0 0 0
5630 376 5 0 -1009.6898759169246 1141.9427128322827 -1078.2876341473745 0 0 0
4183 279 13 -0.5 -867.2786384946086 1125.699230784428 -1113.8849369895509 0 0 0
5632 376 7 2 -833.3613047383335 1136.9099533992464 -1096.5391488289229 0 0 0
5636 376 11 1 -784.1865927387671 1157.1014302738615 -1084.7658530723577 0 0 0
2176 146 1 0 -756.9038325755669 1127.8822279259632 -1054.6288778404569 0 0 0
4895 327 5 0 -820.5134159016742 1197.850318721072 -1107.9464485170392 0 0 0
4180 279 10 1 -728.953237577615 1154.1497599857637 -1122.8503171909529 0 0 0
4900 327 10 1 -694.8066282084827 1134.9365008067718 -1093.5836417277244 0 0 0
5634 376 9 0 -722.918843744726 1182.5459033301213 -1077.7390778780848 0 0 0
5383 359 13 -0.5 -673.7899013526303 1187.5909718774267 -1079.6739803747585 0 0 0
4177 279 7 2 -666.9057040830368 1160.631925646427 -1121.9110800410706 0 0 0