LAMMPS data file via write_data, version 27 Jun 2024, timestep = 16960000, units = real

5730 atoms
15 atom types
5558 bonds
16 bond types
5730 angles
15 angle types

-3000 3000 xlo xhi
-1500 1500 ylo yhi
-1500 1500 zlo zhi

Masses

1 241.19
2 73.54000000000001
3 330.71
4 235.16
5 68.06999999999999
6 353.53
7 223.38
8 41.1
9 216.91
10 155.15
11 147.32
12 264.65
13 300.8
14 326.05
15 85.20999999999999

Pair Coeffs # lj/cut/coul/debye/gpu

1 0.71637 40.7505
2 0.665709 48.1397
3 1.15033 39.2216
4 0.726774 43.8077
5 0.514724 53.3428
6 1.17127 41.7847
7 1.2256 38.5601
8 0.675431 54.5696
9 1.26117 43.78
10 0.939007 42.5209
11 0.960667 41.1825
12 1.30988 48.0761
13 1.36645 37.7114
14 1.35529 39.2179
15 0.592003 47.2602

Bond Coeffs # harmonic

1 0.003 59.228
2 0.008 56.48
3 0.001 69.324
4 3.207 42.88
5 0.11 49.807
6 0.002 74.968
7 0.001 91.635
8 0.145 54.383
9 2.709 44.406
10 1.71 61.679
11 1.625 54.051
12 0.207 66.185
13 0.002 64.76
14 0.079 63.886
15 0.2 40
16 0.2 40

Angle Coeffs # harmonic

1 11.427 158.273
2 50.464 132.042
3 8.207 156.514
4 92.705 149.394
5 100 174.44
6 3.15 145.53
7 48.938 159.031
8 17.401 129.945
9 15.735 56.441
10 60 172.254
11 60.285 168.396
12 11.83 99.091
13 150 107.995
14 27.746 149.925
15 7.483 160.775

Atoms # full

2411 161 11 1 -2216.2931108812513 -1451.4517426457762 -1436.8708379562931 0 0 0
2407 161 7 2 -2203.430938737569 -1451.1507687991539 -1489.6340350709029 0 0 0
2559 171 9 0 -1214.239540231421 -1356.8591448723607 -1429.1158510857172 0 0 1
2564 171 14 -1.5 -1133.7592672177345 -1363.8368700959736 -1474.3849526812146 0 0 1
2556 171 6 -0.5 -1162.911401331897 -1354.0417168774618 -1442.9699330452838 0 0 1
3774 252 9 0 -1725.6076181029741 -1250.586219255607 -1456.8021552922214 0 0 0
3776 252 11 1 -1784.6698696601763 -1249.871100033741 -1427.6389210894222 0 0 0
3780 252 15 0 -1665.1110328937398 -1229.439631393055 -1432.4816468596034 0 0 0
3771 252 6 -0.5 -1684.5561223548862 -1237.2184494504147 -1489.1966980601167 0 0 0
2551 171 1 0 -1534.475749988779 -1234.6673043446694 -1464.056648875328 0 0 1
2558 171 8 0 -1496.3189821778346 -1272.7431615137714 -1473.1572456505603 0 0 1
1814 121 14 -1.5 -2547.588809257237 -671.0439654082777 -1445.177740222422 0 0 0
2930 196 5 0 -2521.6772909356423 -355.1112923892412 -1496.8065078986713 0 0 0
962 65 2 0 -2387.96697167866 -334.48148699743706 -1454.614465510984 0 0 0
964 65 4 0 -2349.8594423607465 -368.670242573317 -1470.6165736273292 0 0 0
2594 173 14 -1.5 -1690.154816590557 -348.7560277231852 -1448.219406276264 0 0 1
2586 173 6 -0.5 -1669.4143327864424 -310.8863733354935 -1461.2393610396794 0 0 1
968 65 8 0 -2868.9556714749183 -263.5566783932281 -1468.3953958718535 0 0 0
961 65 1 0 -2922.811277512513 -225.41672481965588 -1473.9205450538711 0 0 0
965 65 5 0 -2809.0362478522875 -279.94268636437573 -1427.3834071485446 0 0 0
2589 173 9 0 -1669.3791794136494 -265.5615322447828 -1492.9585323119843 0 0 1
2595 173 15 0 -1655.7589282829847 -262.80722798247524 -1425.1238188759612 0 0 1
646 44 1 0 -170.6595124903563 -225.50921611615195 -1497.0777101072815 0 0 0
2929 196 4 0 -2268.2599523192225 -160.25298894493017 -1490.6867222568785 0 0 0
2927 196 2 0 -2261.94631910911 -197.4380491687281 -1443.448935422633 0 0 0
653 44 8 0 -203.6145893957263 -194.60254097475297 -1478.9523723065413 0 0 0
1055 71 5 0 -631.5423508247811 359.8867712631081 -1432.821409354697 0 0 0
4927 329 7 2 -1884.8080049042037 615.1877285518385 -1443.1752503180398 0 0 0
4477 299 7 2 -1915.673467463309 1031.7185525304992 -1478.1356083542785 0 0 0
4481 299 11 1 -1883.343263303189 1056.952442005678 -1442.8945313896068 0 0 0
2409 161 9 0 -2218.867173139316 -1452.1591121210809 -1371.8009710888575 0 0 0
2563 171 13 -0.5 -1509.15616088696 -1398.7311810135968 -1364.3892420112327 0 0 1
2560 171 10 1 -1381.6694680214653 -1353.3236711117506 -1356.0062046275712 0 0 1
2557 171 7 2 -1322.1622833560189 -1356.2109761885185 -1372.004835737407 0 0 1
2561 171 11 1 -1271.9962151254874 -1359.6897780093257 -1391.5270769078757 0 0 1
2555 171 5 0 -1477.5470933281767 -1323.8761577188504 -1412.2983487868275 0 0 1
3775 252 10 1 -1879.523046062773 -1232.3863386372861 -1364.064939230002 0 0 0
3772 252 7 2 -1827.712533627844 -1245.7538548885059 -1394.5201286123163 0 0 0
3767 252 2 0 -1623.295713154033 -1224.2756884856162 -1399.3321546489797 0 0 0
3769 252 4 0 -1579.1650435582965 -1249.8717295881827 -1356.0694404418332 0 0 0
1815 121 15 0 -2588.7902417566593 -673.8355192149203 -1359.9747912468292 0 0 0
1809 121 9 0 -2576.2417857173273 -600.2241957269712 -1387.2970277699665 0 0 0
1806 121 6 -0.5 -2548.536550516962 -642.1481064849193 -1411.92572260514 0 0 0
1609 108 4 0 -1132.8126674465466 -672.7717134153589 -1361.8167425788708 0 0 0
1811 121 11 1 -2590.6116723963405 -537.8793962268996 -1369.1035201864577 0 0 0
248 17 8 0 -1202.1558528133362 -558.9134088287179 -1423.2712292258223 0 0 0
1807 121 7 2 -2595.884200639706 -484.1890810344062 -1362.4100419944423 0 0 0
973 65 13 -0.5 -2808.3791671917447 -411.0972911085464 -1369.5326581325935 0 0 0
963 65 3 -1.5 -2786.5955193508435 -396.1620154902109 -1403.0149105004878 0 0 0
1810 121 10 1 -2605.892663461935 -424.35608396273136 -1357.1516066662841 0 0 0
972 65 12 0 -2748.740277804976 -367.58977038840476 -1398.5544181499615 0 0 0
970 65 10 1 -2684.5864578075966 -350.07452204957457 -1394.2190232482183 0 0 0
967 65 7 2 -2627.823141195402 -326.34721696164945 -1394.2326281310648 0 0 0
2928 196 3 -1.5 -2572.5551333608155 -340.5056368065934 -1370.8381785672873 0 0 0
2938 196 13 -0.5 -2602.230621301083 -309.6076005858255 -1369.9202938307853 0 0 0
971 65 11 1 -2578.807911692176 -306.6727261331119 -1384.7283930809567 0 0 0
2937 196 12 0 -2522.163630111604 -341.27683825178246 -1381.5432636947683 0 0 0
1813 121 13 -0.5 -2549.050159880583 -310.4857817301054 -1354.054020572224 0 0 0
975 65 15 0 -2474.275264052343 -315.85101827061146 -1415.6295554250105 0 0 0
2935 196 10 1 -2463.1987477724742 -320.8840245021655 -1362.3508067276919 0 0 0
2932 196 7 2 -2404.4298715609243 -306.50671063659405 -1351.250638711552 0 0 0
969 65 9 0 -2516.0336930443486 -290.86906142877183 -1371.797479561385 0 0 0
966 65 6 -0.5 -2463.4238377529946 -296.6084896124114 -1362.835270318973 0 0 0
974 65 14 -1.5 -2423.1543254851485 -281.96986471208066 -1373.6540302418882 0 0 0
2940 196 15 0 -2268.1467943604794 -229.69114441352318 -1377.7404961100513 0 0 0
2582 173 2 0 -1596.0274646727755 -245.33032122155524 -1350.9488981215761 0 0 1
650 44 5 0 -220.73503774017487 -152.89679889736905 -1410.031184507897 0 0 0
648 44 3 -1.5 -295.0467847330724 -90.53220505506725 -1366.399381956979 0 0 0
658 44 13 -0.5 -328.9442050861475 -68.0878787803287 -1353.464099231798 0 0 0
1053 71 3 -1.5 -695.7849958068668 422.67647881845136 -1375.7232538793528 0 0 0
1062 71 12 0 -644.2134006525304 420.89342275054884 -1374.089096623332 0 0 0
1063 71 13 -0.5 -725.9922555718281 451.78558623064873 -1365.2947062464136 0 0 0
1411 95 1 0 -1774.4573364103085 536.4492472635496 -1393.0358617781203 0 0 0
1418 95 8 0 -1716.2617271167435 529.640709581886 -1353.1606644228143 0 0 0
4931 329 11 1 -1871.0988722157663 626.2159842368405 -1391.7033205646435 0 0 0
4352 291 2 0 -1986.130855400652 1022.6589056727764 -1351.5216582338035 0 0 0
4479 299 9 0 -1842.4971936050574 1098.1929671265796 -1408.3763800546342 0 0 0
4476 299 6 -0.5 -1792.8691112115591 1117.1646588958856 -1394.5032125705409 0 0 0
4484 299 14 -1.5 -1767.3409467219894 1150.7459118445815 -1382.5422387247484 0 0 0
2406 161 6 -0.5 -2227.3727942786377 -1435.6437822812372 -1321.034486560292 0 0 0
2414 161 14 -1.5 -2211.826752606424 -1426.9436462601293 -1280.3039361841527 0 0 0
2415 161 15 0 -2163.5556508223767 -1451.8775193663073 -1323.6157474362521 0 0 0
3629 242 14 -1.5 -44.021008025789804 -1465.902573173617 -1289.1109604180415 0 0 0
2553 171 3 -1.5 -1486.8148674960664 -1370.9106865616745 -1340.5275011659671 0 0 1
2562 171 12 0 -1442.451985659091 -1347.9653641526243 -1347.348105664465 0 0 1
3768 252 3 -1.5 -1982.78694905556 -1231.1369787374392 -1336.6462995290972 0 0 0
3778 252 13 -0.5 -2016.0166828686984 -1204.961431194503 -1334.1080998957073 0 0 0
3777 252 12 0 -1936.619379836941 -1223.2911666274806 -1344.2269224771 0 0 0
3616 242 1 0 -330.0686176193492 -1184.39660877979 -1292.4732604509397 0 0 0
1802 121 2 0 -2570.814111162962 -756.8835584343215 -1304.8464482338243 0 0 0
1607 108 2 0 -1150.3475889889762 -658.4650798786737 -1319.6620538476566 0 0 0
245 17 5 0 -1196.002440094133 -561.694943591242 -1334.6564594994031 0 0 0
1805 121 5 0 -2682.92763543907 -353.61160069252054 -1278.9062589710531 0 0 0
1812 121 12 0 -2612.960559261087 -360.65277769500153 -1343.3025761420295 0 0 0
1803 121 3 -1.5 -2584.520480020716 -321.55692831334824 -1332.9908034117282 0 0 0
916 62 1 0 -983.7431985885684 -363.1773599168412 -1333.1186776400657 0 0 0
923 62 8 0 -959.9649070640409 -369.66068420442605 -1279.9579221655792 0 0 0
2936 196 11 1 -2353.552453430876 -289.39498213316716 -1344.6603386092117 0 0 0
2934 196 9 0 -2292.6745851197575 -260.0110922170851 -1346.2768624128396 0 0 0
2931 196 6 -0.5 -2243.1714412747365 -242.1230133503394 -1332.5789068109123 0 0 0
2939 196 14 -1.5 -2203.8836538910937 -249.88574545730185 -1313.3208488549935 0 0 0
2584 173 4 0 -1565.0918745649021 -211.8160238669028 -1319.5330157986423 0 0 1
655 44 10 1 -237.17803876253302 -144.68801302283708 -1288.2500235992911 0 0 0
657 44 12 0 -258.6255424146157 -118.57490129375175 -1345.3435836078243 0 0 0
1060 71 10 1 -594.1148537890659 424.8615689136406 -1336.0555079926048 0 0 0
1057 71 7 2 -551.0879709502645 429.6274137461842 -1292.3212617032848 0 0 0
1723 115 13 -0.5 -549.6384316920427 415.3458477723745 -1329.736341706901 0 0 0
1713 115 3 -1.5 -514.211483086992 436.941902818636 -1319.7369434948607 0 0 0
1722 115 12 0 -472.70784746990205 429.97214201139394 -1288.035420449919 0 0 0
1413 95 3 -1.5 -1582.5319191984922 496.75735518402155 -1283.738590648953 0 0 0
1415 95 5 0 -1628.8626024453908 540.9900369839135 -1330.798462049846 0 0 0
1422 95 12 0 -1596.4588514977 544.0158742951636 -1279.3684200513744 0 0 0
4929 329 9 0 -1846.3459965937902 644.2964073056165 -1333.958796731925 0 0 0
4926 329 6 -0.5 -1828.844406613537 646.8109416430714 -1284.7155523229249 0 0 0
1414 95 4 0 -1606.5934220246097 918.8817396753506 -1278.1717725550586 0 0 0
4354 291 4 0 -2026.1870161885474 987.9752294217683 -1342.3362084025755 0 0 0
4365 291 15 0 -1953.4886563667721 1098.0571909609253 -1346.8618212627307 0 0 0
4244 283 14 -1.5 -1921.12838226184 1077.772849432044 -1300.8167968627222 0 0 0
4236 283 6 -0.5 -1932.2449001571542 1119.4060064365976 -1292.7273940404953 0 0 0
4485 299 15 0 -1815.3280335582617 1093.7163085947734 -1343.1810234815205 0 0 0
4364 291 14 -1.5 -1866.0435666277683 1113.7556932399752 -1322.3832034688226 0 0 0
4472 299 2 0 -1802.859801989351 1060.6829288336062 -1276.9637864459573 0 0 0
4234 283 4 0 -1778.4743200466025 1121.8696786630733 -1349.2921390841402 0 0 0
4359 291 9 0 -1950.0349593812148 1158.2026408099623 -1317.623155678715 0 0 0
4361 291 11 1 -2003.730245651882 1177.9683493958948 -1282.1924109711808 0 0 0
4356 291 6 -0.5 -1906.9374506466177 1128.2372263285938 -1331.1242104623325 0 0 0
4245 283 15 0 -1910.6323054084799 1173.062831176815 -1286.1133827845358 0 0 0
4232 283 2 0 -1814.8444522272423 1155.3444550808667 -1325.4571004470627 0 0 0
2402 161 2 0 -2139.055853220305 -1446.1399664497876 -1243.5802382023028 0 0 0
2404 161 4 0 -2104.1133489428707 -1448.9764478695224 -1201.1905265413968 0 0 0
3624 242 9 0 -110.62953723675675 -1464.9528531522399 -1219.2532973062096 0 0 0
3621 242 6 -0.5 -71.33033767813771 -1479.0358890506627 -1257.1293734372823 0 0 0
3630 242 15 0 -44.77111081892988 -1452.217207117375 -1225.1717482056627 0 0 0
3770 252 5 0 -1929.3568255928944 -1125.9027790076218 -1267.7585214054438 0 0 0
3623 242 8 0 -309.2883312289403 -1197.7643510470496 -1234.5443562450282 0 0 0
3773 252 8 0 -1879.7074964872397 -1075.6696429462927 -1230.035775457598 0 0 0
1804 121 4 0 -2568.2607114233874 -810.5485031814866 -1264.8193533950255 0 0 0
1618 108 13 -0.5 -1500.8382741850057 -612.0204702320442 -1247.8737888945984 0 0 0
1620 108 15 0 -1173.3692167804124 -612.5815484675023 -1233.5758848764012 0 0 0
1608 108 3 -1.5 -1479.324986475009 -575.5358196376446 -1240.5417291543602 0 0 0
1617 108 12 0 -1442.157848010983 -562.1395487067948 -1215.8211418997291 0 0 0
253 17 13 -0.5 -1307.5726378506217 -569.9975473711143 -1227.3900053490097 0 0 0
243 17 3 -1.5 -1267.7493587090337 -557.1611950274678 -1236.932270930897 0 0 0
252 17 12 0 -1222.4799850548152 -570.8202369241702 -1229.7665182718542 0 0 0
1611 108 6 -0.5 -1151.6996122859832 -584.5934386846735 -1206.4953708894611 0 0 0
1619 108 14 -1.5 -1118.9543221119818 -556.6424977373857 -1215.8382316010798 0 0 0
1801 121 1 0 -2717.122219403015 -462.10114896957174 -1209.29809751565 0 0 0
1808 121 8 0 -2718.9290050886298 -404.7508167076831 -1202.0324302454817 0 0 0
920 62 5 0 -913.2255510121267 -443.71851429550435 -1220.6932966101667 0 0 0
3121 209 1 0 -1227.110894077922 -167.2475164446777 -1236.5471095951143 0 0 0
652 44 7 2 -230.14806902293955 -162.86815851933818 -1230.2553314262234 0 0 0
5059 338 4 0 -755.1048905691484 121.19192753621064 -1212.4891496194791 0 0 0
1715 115 5 0 -515.2430490505566 405.16996291854133 -1223.0201791670609 0 0 0
1061 71 11 1 -509.0266248025606 440.6315198576329 -1259.1828228884597 0 0 0
1720 115 10 1 -409.6509537783053 444.0077968326591 -1268.4875263670053 0 0 0
1064 71 14 -1.5 -360.5202933768624 441.67437933257077 -1219.9878503761988 0 0 0
1423 95 13 -0.5 -1599.2651692902841 459.02344957877204 -1274.8368552803456 0 0 0
1059 71 9 0 -452.25241582664023 456.61356520921385 -1229.4210023532999 0 0 0
1056 71 6 -0.5 -400.6550553280753 460.193593702376 -1216.8613642515234 0 0 0
1065 71 15 0 -443.2289437951171 498.4786389343807 -1207.6969254353132 0 0 0
1717 115 7 2 -356.60312781939047 467.11294720215295 -1248.6172163808415 0 0 0
1721 115 11 1 -308.1454615957659 479.70021610214394 -1229.3420793823202 0 0 0
1719 115 9 0 -246.65475142929333 480.62348444733243 -1203.843953498374 0 0 0
1716 115 6 -0.5 -192.8857007511016 481.87432385212213 -1204.7458256098807 0 0 0
1724 115 14 -1.5 -153.1257903309258 460.53308458110473 -1205.177871631337 0 0 0
5161 345 1 0 -2078.247594696137 567.136383592748 -1221.82965780973 0 0 0
4935 329 15 0 -1861.2852368014778 584.1099537593108 -1262.8953664825492 0 0 0
1725 115 15 0 -209.42119011982444 526.8306086705412 -1202.1562082289925 0 0 0
1714 115 4 0 -92.5261027771613 578.4774454439566 -1240.5521640055438 0 0 0
1712 115 2 0 -145.84728881390757 556.017559543268 -1206.7676383822923 0 0 0
4934 329 14 -1.5 -1806.5715533664948 666.5741109744619 -1251.8164098407933 0 0 0
1420 95 10 1 -1592.8001129949673 605.5195451996176 -1258.3559661569923 0 0 0
1417 95 7 2 -1584.9419801841548 658.448065265347 -1226.3829753645316 0 0 0
4663 311 13 -0.5 -1296.7121896342828 786.5515586108801 -1241.7063200778182 0 0 0
4653 311 3 -1.5 -1272.664750448013 792.6588919604978 -1206.9732591089578 0 0 0
1412 95 2 0 -1604.9005443687993 870.3776774232003 -1220.9608496709795 0 0 0
4660 311 10 1 -1170.0357153045227 844.6771688512603 -1207.8408172155605 0 0 0
4657 311 7 2 -1112.755349379558 867.6821116815702 -1212.699156980014 0 0 0
4661 311 11 1 -1064.577225223927 891.0472300508868 -1213.147032764676 0 0 0
4093 273 13 -0.5 -1097.0730312440958 894.8574339537909 -1236.8548844130244 0 0 0
4659 311 9 0 -1014.0134507674428 932.9515342778958 -1218.7902794484019 0 0 0
4656 311 6 -0.5 -979.2892202397594 973.3538413920074 -1236.4421884912692 0 0 0
5638 376 13 -0.5 -966.8817007633362 967.6119732247987 -1212.6862833011028 0 0 0
4474 299 4 0 -1805.6429360865293 1016.5202252260067 -1244.2640940171495 0 0 0
4664 311 14 -1.5 -939.2926198619946 993.0879066746528 -1232.8996132117313 0 0 0
5628 376 3 -1.5 -946.1129882766295 998.8833143110202 -1233.8800080076805 0 0 0
5637 376 12 0 -922.7947575304509 1039.8892848297799 -1218.1151477725577 0 0 0
4091 273 11 1 -887.3741820560075 1011.2430670321945 -1200.531516317449 0 0 0
4183 279 13 -0.5 -834.3550938065376 1094.3309388822242 -1232.6707180613944 0 0 0
5635 376 10 1 -875.5672998301911 1083.17586431125 -1214.3687066525615 0 0 0
4089 273 9 0 -840.7345350514942 1057.5975565368503 -1200.4945785645334 0 0 0
5632 376 7 2 -828.4736686834998 1121.8117610129823 -1200.662441344004 0 0 0
4173 279 3 -1.5 -793.0199223194891 1083.4636970318832 -1238.3569784404385 0 0 0
4903 327 13 -0.5 -817.9235090147137 1089.9973246770257 -1219.3215309430025 0 0 0
4182 279 12 0 -751.0288415903011 1107.0378999286056 -1230.4247410709659 0 0 0
4086 273 6 -0.5 -820.283779454695 1105.385950776317 -1204.4297207152847 0 0 0
4239 283 9 0 -1957.93302117875 1156.405909441332 -1259.9326643890447 0 0 0
4241 283 11 1 -2008.013880011071 1192.1256166760097 -1241.6671286559208 0 0 0
4175 279 5 0 -797.984803171321 1185.3332298905455 -1244.1111684647406 0 0 0
5374 359 4 0 -243.29023680345605 1194.0486460024001 -1201.4569036594578 0 0 0
4360 291 10 1 -2094.9513490193617 1236.1213353866926 -1240.3359120280156 0 0 0
4357 291 7 2 -2047.0945857324405 1205.063245317665 -1266.048726039383 0 0 0
4237 283 7 2 -2042.947996615673 1231.2537310013865 -1229.1467656170128 0 0 0
4240 283 10 1 -2082.3586686255453 1274.5547491154468 -1212.298965182161 0 0 0
4178 279 8 0 -834.4202456026633 1243.0169118445776 -1223.9191958541342 0 0 0
4231 283 1 0 -2340.1460091577974 1299.977072730345 -1204.9379345012137 0 0 0
4238 283 8 0 -2291.8404917431767 1335.3054975259406 -1229.1531117614966 0 0 0
4235 283 5 0 -2200.494356815976 1314.373556324767 -1207.95582566816 0 0 0
4362 291 12 0 -2137.104003465851 1277.897707249612 -1211.4026535879857 0 0 0
4171 279 1 0 -893.6756913864851 1281.7068446783903 -1223.2666791178071 0 0 0
4355 291 5 0 -2138.667422825021 1365.2224483322002 -1258.1523250547157 0 0 0
4358 291 8 0 -2169.995066169313 1421.8741401982334 -1261.5650219591737 0 0 0
4268 285 8 0 -736.013962820636 1369.701295838699 -1213.729226758357 0 0 0
4261 285 1 0 -744.7651522438059 1423.175884597901 -1229.2574027724818 0 0 0
4351 291 1 0 -2218.4725932532297 1480.9058138629218 -1249.3926817759393 0 0 0
3622 242 7 2 -179.84721902157906 -1391.3497873198226 -1155.396057567942 0 0 0
3625 242 10 1 -222.08460977580478 -1352.2914590241226 -1135.122085466099 0 0 0
3626 242 11 1 -145.87268464630398 -1424.7544605070461 -1179.9339141211904 0 0 0
3620 242 5 0 -270.60996179518196 -1244.4614226169922 -1183.3800109170697 0 0 0
3766 252 1 0 -1869.6291155369975 -1057.5960291749948 -1173.858676901067 0 0 0
2666 178 11 1 -6.469563488292643 -807.7181060205452 -1129.1330833201341 0 0 0
2656 178 1 0 -282.21659311544295 -676.9046134227038 -1184.704029218691 0 0 0
1615 108 10 1 -1381.0849012879148 -559.6836403137551 -1196.855675714874 0 0 0
1612 108 7 2 -1320.1550715826306 -563.0527198251713 -1188.9128210789097 0 0 0
1616 108 11 1 -1266.3936827577563 -571.3950005820724 -1184.8028241487773 0 0 0
1614 108 9 0 -1202.94208338339 -587.3058576527778 -1189.7878967365632 0 0 0
250 17 10 1 -1169.6858662572886 -559.3973800414399 -1196.3200026661252 0 0 0
247 17 7 2 -1113.356499366045 -547.590320416579 -1175.2511488697196 0 0 0
251 17 11 1 -1061.5241570247526 -536.5014610049113 -1165.1947231719128 0 0 0
928 62 13 -0.5 -911.7594177308723 -554.7016772460303 -1154.6765069653623 0 0 0
1610 108 5 0 -1488.9571238599042 -461.7753298184414 -1180.1284906716032 0 0 0
249 17 9 0 -1004.8245149759058 -521.465965770163 -1138.748810900583 0 0 0
918 62 3 -1.5 -910.3492375501183 -514.2824917508605 -1168.1653399372785 0 0 0
927 62 12 0 -878.2454178085458 -478.2664538772778 -1160.933207106164 0 0 0
5533 369 13 -0.5 -2742.9255378789167 -448.95370542903794 -1169.3895021566836 0 0 0
5523 369 3 -1.5 -2705.7214127943066 -440.32254650731977 -1149.76755145176 0 0 0
1613 108 8 0 -1519.9289837044273 -427.86423079160676 -1133.63551721953 0 0 0
925 62 10 1 -825.4705848442843 -444.1372850105144 -1139.8453282488117 0 0 0
3128 209 8 0 -1223.4789599145693 -174.45343803605084 -1175.3926354313767 0 0 0
656 44 11 1 -218.43161402480973 -176.56544146784753 -1179.6670876358824 0 0 0
5057 338 2 0 -745.3101873651824 84.96353719635377 -1166.4358463147707 0 0 0
1711 115 1 0 -549.4845704774876 289.1975438790802 -1156.0966289440141 0 0 0
1718 115 8 0 -550.1815484178753 346.0026360228234 -1186.0134542264411 0 0 0
5168 345 8 0 -2104.434807834492 551.2757590837531 -1178.3327638069516 0 0 0
4922 329 2 0 -1848.6493158862254 568.1634213548978 -1191.355898306605 0 0 0
4924 329 4 0 -1849.9595122507742 531.1679003169694 -1149.4089599189765 0 0 0
1052 71 2 0 -457.08785106567973 569.2033615615618 -1176.1704746993807 0 0 0
1054 71 4 0 -470.002170799244 621.7098027073206 -1172.6684738754536 0 0 0
1421 95 11 1 -1584.9281522399535 704.566417577503 -1198.8013484813262 0 0 0
4081 273 1 0 -895.165671065581 742.2420956255899 -1161.407205129568 0 0 0
1419 95 9 0 -1594.0738403710982 762.7242188040625 -1166.177953891861 0 0 0
1416 95 6 -0.5 -1588.1203860898718 807.7296420045576 -1136.1905659232584 0 0 0
4662 311 12 0 -1228.3468675832023 815.2844351669816 -1196.4625332351015 0 0 0
4085 273 5 0 -998.4145786435979 819.9866339507863 -1154.2443560378156 0 0 0
4088 273 8 0 -954.414445458043 767.4985740812691 -1141.2480468844271 0 0 0
1425 95 15 0 -1580.6164294350194 826.2623526899919 -1189.9180557530776 0 0 0
1424 95 14 -1.5 -1601.9539309023842 849.4879107717877 -1126.0315340364511 0 0 0
4655 311 5 0 -1259.5194750386563 855.1917440140285 -1140.9855130149106 0 0 0
4066 272 1 0 -2690.851834938589 928.143116766689 -1135.9828462239504 0 0 0
4083 273 3 -1.5 -1082.6476090044844 905.0597601194067 -1197.832100705079 0 0 0
4092 273 12 0 -1037.7643078920846 914.9202199994365 -1179.4370270535937 0 0 0
4090 273 10 1 -988.4150193518691 954.977152377952 -1185.2051812418026 0 0 0
4665 311 15 0 -989.6818437230007 1004.9102140837257 -1187.7114245512646 0 0 0
4652 311 2 0 -972.3615484690537 1048.497017910692 -1182.3826867339733 0 0 0
4087 273 7 2 -934.4763111387879 984.5209559595146 -1195.712243122571 0 0 0
5630 376 5 0 -957.584027906423 1033.2807505071403 -1133.9133303698936 0 0 0
4654 311 4 0 -962.4170429494465 1087.1996457522393 -1158.5913715122997 0 0 0
4095 273 15 0 -817.5078564426566 1102.7384020796615 -1155.006726256151 0 0 0
4893 327 3 -1.5 -781.3927911356635 1078.6744777140952 -1199.5818345205885 0 0 0
4902 327 12 0 -758.2732910211847 1108.581397625992 -1164.6022713614977 0 0 0
4180 279 10 1 -703.0453192084456 1119.7353006906985 -1184.6389737954353 0 0 0
4895 327 5 0 -832.4751230680291 1168.0574502747493 -1171.6329565528097 0 0 0
2176 146 1 0 -867.1720352715454 1158.1669532360816 -1139.2602052506054 0 0 0
4094 273 14 -1.5 -791.9890732844993 1136.9848383046124 -1192.194263010704 0 0 0
4082 273 2 0 -792.7058321473618 1145.1827932633446 -1139.84317717643 0 0 0
5636 376 11 1 -787.6035605825139 1155.033662385845 -1189.64979079511 0 0 0
5634 376 9 0 -733.8298556083002 1183.159734239382 -1166.1970523975608 0 0 0
5383 359 13 -0.5 -687.377145757567 1171.5525887956057 -1150.8783471389643 0 0 0
4900 327 10 1 -704.6707458707796 1145.6643082070934 -1147.7833956654283 0 0 0
5631 376 6 -0.5 -695.3939576438667 1192.4763120531509 -1134.7426455716293 0 0 0
4177 279 7 2 -659.0990310753617 1141.72082099416 -1147.5288625991966 0 0 0
5373 359 3 -1.5 -653.6180680015034 1185.1463498853702 -1128.6218952509626 0 0 0
4891 327 1 0 -931.6004024923517 1260.6478624899848 -1183.7047573707364 0 0 0
4898 327 8 0 -872.1967673258436 1236.222178431612 -1166.630951093626 0 0 0
5382 359 12 0 -621.498787740327 1220.3430494399402 -1140.8606305506748 0 0 0
5380 359 10 1 -563.9725258682583 1244.572867983842 -1129.9166463595047 0 0 0
5385 359 15 0 -350.1575229093658 1273.5855596879114 -1143.1033093351898 0 0 0
5372 359 2 0 -290.7337186166413 1232.2180196833328 -1187.707570536111 0 0 0
4353 291 3 -1.5 -2154.765670498887 1294.6150343576194 -1169.639589146783 0 0 0
4242 283 12 0 -2114.865652591186 1321.5582815998603 -1184.2359681613973 0 0 0
4363 291 13 -0.5 -2151.3435017622114 1333.3153225442086 -1152.1184742628832 0 0 0
4265 285 5 0 -692.7934538332992 1341.9688678487094 -1145.6317281541449 0 0 0
4233 283 3 -1.5 -2108.670572216394 1365.5029593115337 -1162.7862329219508 0 0 0
4243 283 13 -0.5 -2079.982206986923 1379.3239111471826 -1133.6320749228635 0 0 0
3618 242 3 -1.5 -302.151058825483 -1294.1029489415205 -1087.7551695612126 0 0 0
3627 242 12 0 -259.46927439392823 -1302.1419914284716 -1115.0484031724106 0 0 0
3628 242 13 -0.5 -330.1614523469767 -1261.4973216503524 -1086.6349943174123 0 0 0
2665 178 10 1 -103.65821920913773 -797.7806680208934 -1068.2970965749794 0 0 0
2662 178 7 2 -48.06437931587376 -799.7915787179568 -1095.502218851201 0 0 0
2663 178 8 0 -276.55389113666627 -677.9745895386895 -1120.7666344612092 0 0 0
2660 178 5 0 -215.44549143362127 -715.1916996258096 -1088.2362348561703 0 0 0
255 17 15 0 -973.5031098857532 -535.1758340081826 -1089.2277404201416 0 0 0
5532 369 12 0 -2676.256490765422 -466.9475944152261 -1120.482414109848 0 0 0
5530 369 10 1 -2618.8043641984877 -476.9890345978791 -1099.4048406386166 0 0 0
5527 369 7 2 -2566.723991187447 -483.8864670295562 -1065.8659233568 0 0 0
254 17 14 -1.5 -923.0723448227645 -481.89316772573085 -1119.7481340506083 0 0 0
246 17 6 -0.5 -967.1879660804224 -488.61105307267735 -1124.8751708730542 0 0 0
1606 108 1 0 -1516.1255929225586 -440.74081282702497 -1060.5250927939671 0 0 0
922 62 7 2 -776.2695727204332 -415.1041842471553 -1115.1208663015236 0 0 0
3388 226 13 -0.5 -781.2874393509541 -375.96512608885683 -1116.845426575671 0 0 0
926 62 11 1 -739.1689824924877 -384.78039546877966 -1092.7647755828002 0 0 0
3378 226 3 -1.5 -772.8501090822601 -358.83179610547444 -1079.2155345800722 0 0 0
924 62 9 0 -687.5555726071182 -362.6494847685227 -1059.7712401533022 0 0 0
930 62 15 0 -639.5312629915144 -322.3464253042364 -1076.0351183774976 0 0 0
5443 363 13 -0.5 -603.1263416044696 -266.49936513815936 -1059.4846665468197 0 0 0
917 62 2 0 -555.1642581647017 -268.3694123453166 -1078.5828429893775 0 0 0
919 62 4 0 -512.1170814210864 -232.22940304358983 -1053.0975535003088 0 0 0
660 44 15 0 -143.73839662113505 -236.877295948505 -1100.6022075701042 0 0 0
649 44 4 0 -1.5757007210094678 -236.06343046402714 -1093.7957093341827 0 0 0
647 44 2 0 -58.1156755238976 -230.79337631818697 -1088.817895208819 0 0 0
3381 226 6 -0.5 -507.9419972937184 -164.6756141065681 -1075.448443299307 0 0 0
3377 226 2 0 -390.6744422220003 -176.83837751070732 -1065.2004778639289 0 0 0
3379 226 4 0 -329.58829012566224 -150.7143378423684 -1053.8005798496965 0 0 0
654 44 9 0 -203.77929088770796 -187.69687740901426 -1113.828733611836 0 0 0
651 44 6 -0.5 -169.66891470423118 -194.5528774361449 -1072.861077391095 0 0 0
3125 209 5 0 -1184.5678620306362 -141.41144184091013 -1109.1162768743247 0 0 0
3389 226 14 -1.5 -496.1683351806915 -125.68977552427947 -1092.9517243751918 0 0 0
5064 338 9 0 -753.4593667843944 -6.936863440283061 -1060.8179992633807 0 0 0
5061 338 6 -0.5 -697.7946144506544 -6.031954337371739 -1065.2690818670858 0 0 0
5070 338 15 0 -739.6242147153549 25.775925940839286 -1116.4630537060657 0 0 0
5069 338 14 -1.5 -661.2967764944608 13.898235452480453 -1080.637977071707 0 0 0
4688 313 8 0 -2785.051351702687 586.9162458301922 -1073.7438573632364 0 0 0
4681 313 1 0 -2754.584049920834 564.5622557478436 -1116.62435229319 0 0 0
4685 313 5 0 -2793.524146236429 650.7478346957363 -1059.6361858292116 0 0 0
5165 345 5 0 -2114.1980473819276 620.2478874074542 -1118.7937980506695 0 0 0
5172 345 12 0 -2146.9468224195784 695.1986053524063 -1071.1821391127069 0 0 0
5163 345 3 -1.5 -2153.6348568478334 726.8315091525656 -1111.2156289106479 0 0 0
4693 313 13 -0.5 -2882.9894014260176 769.7943756480295 -1079.2793926302827 0 0 0
5173 345 13 -0.5 -2171.9440290810994 766.2164310276975 -1110.4195755940132 0 0 0
4073 272 8 0 -2691.6533193745213 937.930774447378 -1095.9457372144238 0 0 0
4651 311 1 0 -1257.9446254253767 963.2277573034645 -1050.149211211638 0 0 0
5633 376 8 0 -938.4698296848783 1027.784654454358 -1072.7643308622949 0 0 0
5626 376 1 0 -878.0004059205947 1004.994171617601 -1074.1835287553254 0 0 0
4069 272 4 0 -2374.7651469264392 1145.259426826082 -1061.656295503766 0 0 0
4084 273 4 0 -754.088063073909 1188.53768612938 -1121.6060514655892 0 0 0
4897 327 7 2 -662.2938895007721 1180.5406251643005 -1119.9165604151215 0 0 0
4181 279 11 1 -619.4162864300092 1163.1501880279354 -1117.6823948573428 0 0 0
4273 285 13 -0.5 -652.6427657079312 1178.7422857334495 -1080.6165586400755 0 0 0
4179 279 9 0 -571.1942466473572 1193.691209391575 -1082.258756390487 0 0 0
2183 146 8 0 -887.8421851532443 1211.166902101028 -1106.3904861197161 0 0 0
5640 376 15 0 -718.4748058981581 1233.4124318997053 -1106.4123703323385 0 0 0
5627 376 2 0 -702.8330071063449 1266.121643091156 -1060.220233768676 0 0 0
5375 359 5 0 -676.6116833851496 1272.9162086663143 -1106.8448203254086 0 0 0
4901 327 11 1 -622.4843780852678 1208.6522459655787 -1095.1323958926648 0 0 0
5639 376 14 -1.5 -662.9571675164561 1220.6326307415682 -1124.5450520075806 0 0 0
4263 285 3 -1.5 -649.2000695758771 1216.8946285493284 -1100.6102744961963 0 0 0
4272 285 12 0 -616.2383286249845 1256.723674974213 -1102.2446375862132 0 0 0
4899 327 9 0 -566.2606876673533 1240.4127846519518 -1074.2806385499903 0 0 0
4176 279 6 -0.5 -523.1347576759239 1217.712529991766 -1075.5892987948475 0 0 0
4896 327 6 -0.5 -518.9190226971174 1264.7918729668045 -1077.623836982941 0 0 0
4904 327 14 -1.5 -476.3763865344538 1262.5572750008541 -1091.0824582091893 0 0 0
5377 359 7 2 -504.16057229283325 1257.997070095728 -1120.6734545168904 0 0 0
4184 279 14 -1.5 -501.7701471194952 1256.225713641396 -1080.1372972959211 0 0 0
5381 359 11 1 -452.90890593930226 1273.4876051183007 -1112.2136337290103 0 0 0
5359 358 4 0 -2939.2409347498005 1323.616649753221 -1069.7333297558423 1 0 0
2188 146 13 -0.5 -994.0784635873334 1308.9648916724798 -1064.3500974110443 0 0 0
5378 359 8 0 -711.174919030259 1290.530685567335 -1062.7422775214145 0 0 0
4270 285 10 1 -555.9195262045004 1277.492974305845 -1103.3776334026004 0 0 0
4267 285 7 2 -498.6378544737733 1297.4710515642446 -1100.104071593873 0 0 0