LAMMPS data file via write_data, version 27 Jun 2024, timestep = 20480000, units = real

5730 atoms
15 atom types
5591 bonds
16 bond types
5730 angles
15 angle types

-3000 3000 xlo xhi
-1500 1500 ylo yhi
-1500 1500 zlo zhi

Masses

1 241.19
2 73.54000000000001
3 330.71
4 235.16
5 68.06999999999999
6 353.53
7 223.38
8 41.1
9 216.91
10 155.15
11 147.32
12 264.65
13 300.8
14 326.05
15 85.20999999999999

Pair Coeffs # lj/cut/coul/debye/gpu

1 0.71637 40.7505
2 0.665709 48.1397
3 1.15033 39.2216
4 0.726774 43.8077
5 0.514724 53.3428
6 1.17127 41.7847
7 1.2256 38.5601
8 0.675431 54.5696
9 1.26117 43.78
10 0.939007 42.5209
11 0.960667 41.1825
12 1.30988 48.0761
13 1.36645 37.7114
14 1.35529 39.2179
15 0.592003 47.2602

Bond Coeffs # harmonic

1 0.003 59.228
2 0.008 56.48
3 0.001 69.324
4 3.207 42.88
5 0.11 49.807
6 0.002 74.968
7 0.001 91.635
8 0.145 54.383
9 2.709 44.406
10 1.71 61.679
11 1.625 54.051
12 0.207 66.185
13 0.002 64.76
14 0.079 63.886
15 0.2 40
16 0.2 40

Angle Coeffs # harmonic

1 11.427 158.273
2 50.464 132.042
3 8.207 156.514
4 92.705 149.394
5 100 174.44
6 3.15 145.53
7 48.938 159.031
8 17.401 129.945
9 15.735 56.441
10 60 172.254
11 60.285 168.396
12 11.83 99.091
13 150 107.995
14 27.746 149.925
15 7.483 160.775

Atoms # full

2410 161 10 1 -2242.3498867675644 -1470.497915358124 -1474.4053650720568 0 0 0
3771 252 6 -0.5 -1638.0466889236382 -1269.2984917203169 -1429.512132052717 0 0 0
3779 252 14 -1.5 -1603.9481811001167 -1255.4765692180279 -1453.454657232855 0 0 0
2560 171 10 1 -1226.9360215451704 -1250.7628030658182 -1451.1827410658843 0 0 1
2557 171 7 2 -1178.7229312533698 -1267.8805875584487 -1485.4785719873232 0 0 1
2555 171 5 0 -1301.8126806774774 -1161.9475211000106 -1465.9638649760982 0 0 1
1804 121 4 0 -2755.1560288175683 -722.0335288284224 -1446.6326354485802 0 0 0
5704 381 4 0 -299.79546828132175 -568.3461199949361 -1479.4302936830886 0 0 1
2594 173 14 -1.5 -1659.7000283468922 -278.81767319773996 -1443.2857015366721 0 0 1
2586 173 6 -0.5 -1656.5537614594746 -237.0483722715455 -1458.868186460904 0 0 1
962 65 2 0 -2400.59812899846 -194.24997655497492 -1427.3589367595036 0 0 0
964 65 4 0 -2353.8036291527833 -207.8081538984663 -1449.5786279103702 0 0 0
2589 173 9 0 -1630.62148529359 -205.7157366675079 -1495.3813132461273 0 0 1
2595 173 15 0 -1646.1843941193124 -187.01822073381925 -1439.5664925894898 0 0 1
1069 72 4 0 -269.7817227084815 -220.9388759466081 -1450.0369809131043 0 0 1
1055 71 5 0 -628.5618969952089 360.0765108887319 -1431.888065772961 0 0 0
1058 71 8 0 -555.9084977606627 362.92562690103813 -1498.9571379369593 0 0 0
4927 329 7 2 -1848.115373085932 585.1104044272655 -1435.1035454647713 0 0 0
4930 329 10 1 -1844.5308130019291 586.883750112668 -1497.1635380586185 0 0 0
1054 71 4 0 -424.9685699116767 580.8401427303452 -1430.9135577369536 0 0 0
1414 95 4 0 -1830.650476750451 830.7465500479973 -1445.8885206514067 0 0 0
4352 291 2 0 -2045.135331551909 1081.7662073610795 -1462.1083276885959 0 0 0
4480 299 10 1 -1997.7859876906177 1056.2120639241746 -1487.7380672067145 0 0 0
4477 299 7 2 -1978.0847720641416 1088.518798449384 -1438.7909887399323 0 0 0
4234 283 4 0 -1847.09756580172 1114.70622173183 -1429.9240662535854 0 0 0
2407 161 7 2 -2238.7361514626036 -1463.9895073938671 -1413.1319813107923 0 0 0
2411 161 11 1 -2238.82513492553 -1465.750818446322 -1358.5017535655097 0 0 0
3769 252 4 0 -1697.2131936422932 -1443.1805015664213 -1366.2507467975922 0 0 0
3767 252 2 0 -1685.2892433740612 -1397.1660847297637 -1391.6987759310769 0 0 0
3778 252 13 -0.5 -1984.8494064869042 -1310.1290315748533 -1353.8783624901457 0 0 0
3780 252 15 0 -1671.0572957689542 -1306.6237621525986 -1416.7870370663618 0 0 0
3772 252 7 2 -1801.1461216180028 -1260.9837203421644 -1371.0810906573147 0 0 0
3776 252 11 1 -1751.6364185469592 -1253.9049637342669 -1392.3153078762834 0 0 0
3774 252 9 0 -1685.1447796244238 -1259.5589926737664 -1402.6884413497298 0 0 0
2563 171 13 -0.5 -1345.143875132808 -1246.5722204196284 -1368.6171673839885 0 0 1
2553 171 3 -1.5 -1308.8544021214307 -1227.9267712754 -1382.6335751956954 0 0 1
2562 171 12 0 -1276.3769753782806 -1226.4342971432939 -1420.9227435620655 0 0 1
1802 121 2 0 -2710.3868042549866 -708.9636029010665 -1424.3471548925122 0 0 0
1814 121 14 -1.5 -2622.492711909527 -721.4586168181658 -1376.3763490062843 0 0 0
1806 121 6 -0.5 -2596.201650197455 -693.0562727196836 -1354.117599948453 0 0 0
1815 121 15 0 -2656.6432951302836 -671.4944729269553 -1351.2917537491635 0 0 0
1810 121 10 1 -2587.096531047298 -461.55074129380966 -1356.2682345852468 0 0 0
2926 196 1 0 -2523.9707369763596 -520.1081258665263 -1403.2644438207851 0 0 0
2933 196 8 0 -2490.6713053388753 -477.6565036901636 -1398.022865024683 0 0 0
241 17 1 0 -1269.661639680441 -474.1405929262476 -1387.9325466474338 0 0 0
973 65 13 -0.5 -2780.5166331349874 -417.3161020601629 -1410.0242364168078 0 0 0
963 65 3 -1.5 -2743.9482255892717 -399.6286345498632 -1423.5603726167285 0 0 0
1812 121 12 0 -2577.0369331769857 -399.48964193102466 -1369.7268436996865 0 0 0
2930 196 5 0 -2511.437386720405 -391.5949651316242 -1403.4231341587413 0 0 0
972 65 12 0 -2716.301686191229 -365.45689265277105 -1403.6354656210801 0 0 0
965 65 5 0 -2771.070790759526 -325.1960131090945 -1353.9333113418709 0 0 0
970 65 10 1 -2653.8114252552523 -341.4037064026945 -1397.2713469005703 0 0 0
1803 121 3 -1.5 -2553.396738485435 -360.28461479143056 -1392.1751371671148 0 0 0
1813 121 13 -0.5 -2571.6683607361856 -328.77980928717164 -1415.4731184246655 0 0 0
2928 196 3 -1.5 -2566.1075842506616 -322.492687879033 -1373.581382526487 0 0 0
967 65 7 2 -2600.2940889220145 -310.9640648493533 -1392.0666039421164 0 0 0
2938 196 13 -0.5 -2595.624477160106 -300.2181820614023 -1352.226213364064 0 0 0
2937 196 12 0 -2521.5457425648115 -313.74011754980927 -1388.7255511582512 0 0 0
971 65 11 1 -2555.422901708514 -281.7613221289592 -1392.7691713180452 0 0 0
969 65 9 0 -2495.7005333979023 -251.64382861014968 -1394.94898009247 0 0 0
975 65 15 0 -2471.5927389044996 -233.05822474064723 -1420.048202437242 0 0 0
2935 196 10 1 -2465.4266580740987 -284.838864638925 -1402.647575424834 0 0 0
2932 196 7 2 -2412.319777226314 -254.08603053542865 -1411.0173413289212 0 0 0
966 65 6 -0.5 -2442.9975609381827 -245.14472058655568 -1385.6614711737993 0 0 0
974 65 14 -1.5 -2403.2574733476986 -260.6821609260379 -1373.9573524524299 0 0 0
2936 196 11 1 -2362.829771780839 -233.11843769730032 -1413.9626034919265 0 0 0
2934 196 9 0 -2305.7072174423674 -201.466553810363 -1412.071217630571 0 0 0
2931 196 6 -0.5 -2267.835880707542 -164.23297699561363 -1398.7075036044364 0 0 0
2940 196 15 0 -2253.9722484941185 -216.9505216917907 -1393.592879345435 0 0 0
2927 196 2 0 -2175.732200087302 -224.10351084421987 -1371.988544272687 0 0 0
2939 196 14 -1.5 -2245.5578666886213 -140.22708111098365 -1369.6071710531412 0 0 0
2584 173 4 0 -1659.35753296836 -92.45359348341461 -1362.4202000285518 0 0 1
2582 173 2 0 -1670.424316009976 -136.90615065809502 -1395.1007109985717 0 0 1
1063 71 13 -0.5 -708.7025963165706 294.1221032811178 -1423.1030668673773 0 0 0
1411 95 1 0 -1630.168161434172 326.4370449710117 -1420.133650760849 0 0 0
1053 71 3 -1.5 -688.3922065481665 310.23807227048 -1389.2401751344075 0 0 0
1062 71 12 0 -652.6254519631094 343.6625132793182 -1383.5362998327253 0 0 0
1418 95 8 0 -1668.0520843072868 390.7768416185656 -1407.2671779869984 0 0 0
1415 95 5 0 -1665.5021939876199 466.10679378937033 -1371.9652057015114 0 0 0
1724 115 14 -1.5 -203.94081395631022 483.53265875928753 -1355.0872425551267 0 0 0
4931 329 11 1 -1859.6278524607537 584.1759283874128 -1382.425328879258 0 0 0
1052 71 2 0 -442.1873526107156 586.8806297702054 -1374.8196692683607 0 0 0
1412 95 2 0 -1806.6717040645212 842.6084496608452 -1412.1923513823522 0 0 0
4088 273 8 0 -938.906269314501 852.6803304823106 -1364.054505756949 0 0 0
4081 273 1 0 -888.5575404272358 839.970273518421 -1408.0154977690147 0 0 0
4365 291 15 0 -2040.040096727473 1124.5788415844875 -1420.2089327755932 0 0 0
4364 291 14 -1.5 -1996.257248682288 1080.58461765517 -1405.9147123848907 0 0 0
4244 283 14 -1.5 -2006.070083477076 1082.048519389224 -1359.9442032626628 0 0 0
4481 299 11 1 -1960.0382366544954 1108.5514884079032 -1391.8006155383757 0 0 0
4356 291 6 -0.5 -1990.0642020431264 1123.6047305849042 -1395.1746990654285 0 0 0
4359 291 9 0 -2010.8376891288258 1170.100991861033 -1372.9815730072523 0 0 0
4245 283 15 0 -1952.5161067966542 1160.7386787632158 -1383.850816982662 0 0 0
4232 283 2 0 -1905.716196221234 1136.8451878903654 -1422.248668051783 0 0 0
2409 161 9 0 -2244.718895054448 -1477.7545290734672 -1295.4581114598623 0 0 0
3768 252 3 -1.5 -1951.0462570078823 -1315.9288359185346 -1328.1477284038397 0 0 0
3777 252 12 0 -1909.7731044364073 -1287.9368658241765 -1322.7215178380056 0 0 0
3775 252 10 1 -1854.602087126445 -1267.3115507833127 -1340.7271936057982 0 0 0
1618 108 13 -0.5 -1460.780700805795 -704.7416133823641 -1284.8563926482425 0 0 0
1809 121 9 0 -2588.987536674348 -640.8902886486974 -1333.3908504745743 0 0 0
1608 108 3 -1.5 -1466.6926639636129 -663.8045287245629 -1275.2147761892666 0 0 0
1609 108 4 0 -1091.983068979004 -624.5943810053179 -1317.405674669133 0 0 0
1811 121 11 1 -2584.5144923537387 -573.9867036254093 -1332.8645885129938 0 0 0
245 17 5 0 -1256.4405678592761 -574.2405996982391 -1295.6955309672514 0 0 0
1607 108 2 0 -1119.4590270444073 -580.6554436754694 -1293.2626416674907 0 0 0
1807 121 7 2 -2587.145122866325 -520.705391122055 -1340.4593353961334 0 0 0
248 17 8 0 -1290.6975030622793 -516.9104384740098 -1337.1023474954488 0 0 0
916 62 1 0 -955.980296500197 -484.1260346802566 -1321.7055863000153 0 0 0
923 62 8 0 -921.9222240482898 -475.779210240936 -1291.3526651727445 0 0 0
968 65 8 0 -2828.796401525287 -304.7235404131622 -1337.0789684607714 0 0 0
1805 121 5 0 -2656.5840029738274 -351.25250043468935 -1341.4472431635932 0 0 0
1808 121 8 0 -2686.270274264493 -300.9497635468879 -1312.5431173488068 0 0 0
961 65 1 0 -2856.1661723589214 -273.62673968407984 -1300.103556494244 0 0 0
1801 121 1 0 -2736.494371690748 -267.70027255515964 -1311.317904977532 0 0 0
2929 196 4 0 -2131.9155548888716 -240.50338912995775 -1349.096058774101 0 0 0
658 44 13 -0.5 -169.07340703189033 -171.48528988878505 -1348.2498270659885 0 0 0
648 44 3 -1.5 -157.41422944815946 -185.98644305661483 -1309.4712334839198 0 0 0
653 44 8 0 -172.10749355671632 27.292925065794524 -1288.2260071228338 0 0 0
1060 71 10 1 -618.5080304285007 376.4493702020432 -1338.3532632653937 0 0 0
1057 71 7 2 -582.7537240637903 418.7568300329423 -1310.8238125856685 0 0 0
1713 115 3 -1.5 -551.6966412996585 446.37012706264136 -1333.6096672505716 0 0 0
1722 115 12 0 -505.1224184643192 447.9399926518435 -1314.1117555819355 0 0 0
1413 95 3 -1.5 -1565.4031133767303 514.6539696126521 -1295.0394258483811 0 0 0
1723 115 13 -0.5 -586.4911442038742 456.7974084268357 -1310.2764620570813 0 0 0
1061 71 11 1 -548.3404686673142 456.0245520907369 -1289.6802684604797 0 0 0
1059 71 9 0 -493.6346160766 491.44936477810114 -1283.4664026532705 0 0 0
1720 115 10 1 -447.9060989556029 475.58612506298056 -1309.9252761813352 0 0 0
1717 115 7 2 -390.55701717233063 498.7841748057027 -1305.9758172752688 0 0 0
1056 71 6 -0.5 -439.6594337536335 503.9955244870807 -1289.2668750020996 0 0 0
1721 115 11 1 -341.6617520252927 521.3464655863071 -1303.2209796760915 0 0 0
1716 115 6 -0.5 -229.16052840060007 517.4653408840485 -1342.2865413466109 0 0 0
4929 329 9 0 -1857.4831947720272 587.2283053697382 -1314.8928633432506 0 0 0
1422 95 12 0 -1609.2568357541288 534.9210470372182 -1286.4936495793804 0 0 0
1420 95 10 1 -1640.2011906593418 586.1171039729161 -1284.182626039843 0 0 0
1423 95 13 -0.5 -1527.1298971011063 533.6464178611618 -1295.9881400883926 0 0 0
1065 71 15 0 -467.46111546377955 536.8509104713221 -1323.2434873484738 0 0 0
1064 71 14 -1.5 -402.68021959774717 525.7528158460964 -1277.4977990414184 0 0 0
1719 115 9 0 -278.6902730455952 531.1043663121524 -1317.9253498878995 0 0 0
1725 115 15 0 -232.26108543012552 562.6137139330255 -1287.9178407745296 0 0 0
1417 95 7 2 -1670.4345125435889 640.4164552362142 -1279.2363699490634 0 0 0
1421 95 11 1 -1694.384999931348 688.05454132566 -1278.9022209524737 0 0 0
1425 95 15 0 -1756.8982316148813 789.3579006658147 -1305.4793735446083 0 0 0
4085 273 5 0 -1011.3708519368498 899.8771461540698 -1313.4932925128346 0 0 0
4236 283 6 -0.5 -1991.3202128611688 1121.9673708994626 -1345.8678232600234 0 0 0
4485 299 15 0 -1976.7670563291574 1129.9425965297407 -1299.7367251252997 0 0 0
4239 283 9 0 -1996.3710524002258 1170.136161559049 -1322.1185601434074 0 0 0
4476 299 6 -0.5 -1952.8618735722027 1161.7377082806963 -1287.3499721642054 0 0 0
4479 299 9 0 -1952.2881482978505 1130.8416760224773 -1329.2349909047148 0 0 0
4357 291 7 2 -2056.4103308891217 1247.9698468001923 -1291.3281836007448 0 0 0
4361 291 11 1 -2031.1895018152477 1215.1906686214813 -1326.7882825892746 0 0 0
4241 283 11 1 -2015.6184912919919 1219.742642534806 -1283.368769059802 0 0 0
5374 359 4 0 -269.85913845777316 1236.1624405964058 -1322.9823805581957 0 0 0
5372 359 2 0 -278.42892061374545 1256.3603294547843 -1281.5989688301959 0 0 0
2415 161 15 0 -2223.728071310586 -1444.8303707838609 -1240.0709020126212 0 0 0
3630 242 15 0 -133.84874166791286 -1453.8951665165425 -1234.3926682570448 0 0 0
3619 242 4 0 -6.464201203874728 -1427.784934399979 -1268.6939820907357 0 0 0
3617 242 2 0 -61.93731888174644 -1432.3922829466896 -1268.277795451187 0 0 0
3770 252 5 0 -1935.2599466864758 -1244.7119997641842 -1264.9171158038619 0 0 0
3616 242 1 0 -458.6060899286707 -1271.9213364745526 -1252.8200180488225 0 0 0
3623 242 8 0 -393.4045224014977 -1247.4482204609171 -1236.9012176539752 0 0 0
3773 252 8 0 -1905.396584838024 -1199.3553350844727 -1200.8093789927902 0 0 0
2803 187 13 -0.5 -23.79482913362513 -764.838079414711 -1231.3641284245148 0 0 0
1617 108 12 0 -1435.0344045272154 -627.7197358208833 -1269.7962246154368 0 0 0
1615 108 10 1 -1376.4757006583181 -603.4502795936326 -1256.6615756680148 0 0 0
253 17 13 -0.5 -1300.2798573239781 -620.4581552604915 -1216.821438455847 0 0 0
243 17 3 -1.5 -1259.0723806079307 -630.998533122645 -1221.886487546335 0 0 0
252 17 12 0 -1222.872396172988 -608.9477056545103 -1242.4658708627724 0 0 0
1610 108 5 0 -1503.7498645801247 -560.4287583878781 -1221.817006679209 0 0 0
1612 108 7 2 -1317.4350163529807 -592.5792013199244 -1242.0898557812232 0 0 0
1616 108 11 1 -1265.0843338582354 -582.0190407654312 -1234.5758516198755 0 0 0
1614 108 9 0 -1204.9918243083964 -559.0629800085602 -1224.3127149990366 0 0 0
250 17 10 1 -1163.0348437961743 -587.34857906389 -1234.5828592065864 0 0 0
1620 108 15 0 -1147.686412029689 -560.8479867922512 -1265.3395819972502 0 0 0
1611 108 6 -0.5 -1152.1099050184216 -554.1888712190373 -1206.9534241442695 0 0 0
247 17 7 2 -1107.1409740123072 -568.7495081378431 -1216.3318076710561 0 0 0
1619 108 14 -1.5 -1113.11151197458 -532.5352543567792 -1207.338949402868 0 0 0
1613 108 8 0 -1500.1764580998838 -500.57543856694963 -1202.4483250105718 0 0 0
920 62 5 0 -911.3911207631063 -477.20706510301073 -1213.3127661439303 0 0 0
657 44 12 0 -175.8988927357109 -180.95342753466008 -1264.2788934429204 0 0 0
655 44 10 1 -164.3186524123584 -205.74600534058595 -1207.1611462187286 0 0 0
650 44 5 0 -193.81951665389943 -69.52095227143163 -1265.9422308190058 0 0 0
646 44 1 0 -133.17400380624707 75.10260942716272 -1255.4559232218828 0 0 0
1715 115 5 0 -527.451014305299 423.56997814518155 -1238.0311939262292 0 0 0
4922 329 2 0 -1968.440837616592 541.4304424706055 -1214.339457663267 0 0 0
4935 329 15 0 -1905.042741694922 573.7807931116033 -1260.1520363956681 0 0 0
4926 329 6 -0.5 -1844.5079365240779 593.6755965872856 -1262.6194910330173 0 0 0
1712 115 2 0 -211.2873489181056 596.9287430210925 -1250.820163134692 0 0 0
4934 329 14 -1.5 -1846.1586702978577 622.9194279875989 -1229.438569433284 0 0 0
1714 115 4 0 -210.9446162940794 654.0964915386722 -1243.838067173336 0 0 0
1419 95 9 0 -1718.7932918542074 748.7724080344169 -1273.286251072595 0 0 0
5173 345 13 -0.5 -2117.975024171306 801.6629318372987 -1230.67363244384 0 0 0
1416 95 6 -0.5 -1751.854747034339 785.6184602188589 -1253.8768017245677 0 0 0
1424 95 14 -1.5 -1791.0806295527948 800.6454475260516 -1240.0984847986895 0 0 0
4663 311 13 -0.5 -1277.5539718152938 818.6440786576095 -1241.698953793969 0 0 0
4653 311 3 -1.5 -1286.0575287407391 848.5927881315625 -1212.6421325746246 0 0 0
4657 311 7 2 -1150.584681808912 955.0404155345977 -1204.8303387838794 0 0 0
4083 273 3 -1.5 -1094.7558668261915 950.6076977786759 -1218.9282334899792 0 0 0
4092 273 12 0 -1047.514875133022 960.5254139655917 -1227.0290487622767 0 0 0
4661 311 11 1 -1109.912161004537 990.9299067721332 -1206.8827456108183 0 0 0
4659 311 9 0 -1050.3918948027765 1017.4856419169383 -1217.0012604121696 0 0 0
4090 273 10 1 -999.1337341064428 1001.0978623680869 -1214.128149786651 0 0 0
4656 311 6 -0.5 -999.1125694685102 1035.529397770735 -1206.183600664411 0 0 0
4472 299 2 0 -2007.8803204777164 1096.8585582959258 -1241.5740257608975 0 0 0
4665 311 15 0 -1021.2584380753607 1068.9495533457145 -1237.8852212415666 0 0 0
4652 311 2 0 -952.1546164141537 1100.3840125628262 -1255.8264827181092 0 0 0
4664 311 14 -1.5 -965.7440164423344 1064.050016620659 -1214.4391800096153 0 0 0
4484 299 14 -1.5 -1956.0357709824225 1168.051081439321 -1243.4687378762144 0 0 0
4654 311 4 0 -896.4605607120806 1132.0191518732195 -1263.8236384375923 0 0 0
4237 283 7 2 -2028.5455988713775 1267.2561251341187 -1259.8316427162956 0 0 0
4358 291 8 0 -2260.1964524912387 1336.6281995651705 -1203.4711384725751 0 0 0
4355 291 5 0 -2190.8911624922107 1322.7415691004032 -1203.0328552204767 0 0 0
4362 291 12 0 -2103.388300307863 1335.818480013377 -1217.8143281865953 0 0 0
4360 291 10 1 -2080.5351470090945 1287.8082800335678 -1251.0147071642825 0 0 0
4240 283 10 1 -2042.6666711127104 1324.8919356579859 -1242.175240397588 0 0 0
4178 279 8 0 -759.5760270355862 1297.3111575094829 -1217.900409555145 0 0 0
4171 279 1 0 -713.837752475822 1332.7614463040884 -1206.5332139170812 0 0 0
4351 291 1 0 -2289.5699705281895 1404.5081476769574 -1203.5709323413316 0 0 0
4242 283 12 0 -2070.6052073478672 1382.0031397126922 -1220.9256099684117 0 0 0
4261 285 1 0 -709.4227520477407 1381.2265428284177 -1226.1115302556475 0 0 0
4268 285 8 0 -645.3843271839413 1362.6407424134409 -1218.051898196435 0 0 0
4892 327 2 0 -508.7863256703969 1372.038207502684 -1204.5470789537214 0 0 0
2406 161 6 -0.5 -2260.440478399704 1497.58879215521 -1251.8737897221336 0 -1 0
2414 161 14 -1.5 -2265.567206515635 1460.1160848616996 -1228.7968883080464 0 -1 0
4233 283 3 -1.5 -2074.6390016448167 1430.8916075918473 -1216.6058076237382 0 0 0
4894 327 4 0 -514.0463385440182 1431.7275091370307 -1234.7249477758835 0 0 0
3629 242 14 -1.5 -103.44011737393622 1469.5824487093953 -1201.3479606738417 0 -1 0
3626 242 11 1 -226.28842511523382 -1434.580991545358 -1183.4867839312953 0 0 0
3624 242 9 0 -163.1333370978632 -1454.555536686388 -1188.3804073106744 0 0 0
3621 242 6 -0.5 -119.53380667077188 -1489.3765640878364 -1195.7188444184467 0 0 0
2402 161 2 0 -2185.078859184209 -1390.6856258011708 -1181.5724316088063 0 0 0
3625 242 10 1 -319.4523680314556 -1372.9186252462698 -1156.8527487046842 0 0 0
3622 242 7 2 -270.25564987313396 -1406.9993513308614 -1169.874496611414 0 0 0
2404 161 4 0 -2182.227844332745 -1341.740671396251 -1151.5748984027389 0 0 0
3620 242 5 0 -369.1402909994857 -1284.696380924102 -1175.1948768002449 0 0 0
3627 242 12 0 -364.398589360928 -1331.636903831595 -1134.647140587453 0 0 0
3766 252 1 0 -1856.9348952084133 -1174.1125672812598 -1175.1030116387442 0 0 0
2656 178 1 0 -216.26957069391642 -968.6050653458743 -1159.5430688691447 0 0 0
2793 187 3 -1.5 -8.544230406519414 -739.4775048738139 -1199.8919151833106 0 0 0
251 17 11 1 -1057.9936662789723 -556.4947908760907 -1197.9267693309534 0 0 0
249 17 9 0 -1004.7190973786437 -532.8121310088086 -1163.7447966054128 0 0 0
5533 369 13 -0.5 -2792.509467937236 -474.128249856187 -1184.098761995082 0 0 0
5523 369 3 -1.5 -2759.6351310920436 -498.21429502546164 -1169.6108935228979 0 0 0
5532 369 12 0 -2718.7958504587486 -483.50278637556784 -1146.298344986884 0 0 0
1606 108 1 0 -1460.0827492389024 -463.36484161472436 -1159.1913332304212 0 0 0
927 62 12 0 -871.0458889809499 -489.14095272324846 -1136.6404462397973 0 0 0
925 62 10 1 -827.7486464624639 -446.679748749312 -1137.630092972973 0 0 0
922 62 7 2 -790.1971418333738 -397.5430756403947 -1143.9087074784998 0 0 0
926 62 11 1 -749.9505876108603 -362.34500330904206 -1140.846400526602 0 0 0
924 62 9 0 -707.024773507448 -315.6334674686766 -1125.946150193687 0 0 0
3128 209 8 0 -1298.6434179488085 -175.94292701003562 -1148.606613745701 0 0 0
3121 209 1 0 -1287.906802356544 -214.24393047280435 -1197.1882466955801 0 0 0
652 44 7 2 -158.4999324003654 -222.4862274729798 -1147.7419134436811 0 0 0
5063 338 8 0 -1104.7431475441463 -7.742417934100115 -1136.4717262308343 0 0 0
5059 338 4 0 -775.8236308477232 -10.68338327409189 -1196.7372594843814 0 0 0
5057 338 2 0 -785.8018516319376 -20.00513186636458 -1137.545741120297 0 0 0
5056 338 1 0 -1172.1791042713573 4.2009025843519465 -1158.8274431447153 0 0 0
1711 115 1 0 -611.7891014320061 346.0652054465425 -1184.2434212879048 0 0 0
1718 115 8 0 -575.9574464121405 390.97128483581537 -1187.2904340561836 0 0 0
4924 329 4 0 -2005.4689652897553 506.9324770082439 -1185.2033683776867 0 0 0
5168 345 8 0 -2041.4012029956154 642.0751335855824 -1133.6090819886479 0 0 0
5161 345 1 0 -2016.1129990827142 617.7137655087338 -1175.2448060370498 0 0 0
5165 345 5 0 -2088.4731515982435 695.5338129784066 -1135.726152698528 0 0 0
5172 345 12 0 -2121.480577781442 781.3131070474856 -1146.1548510297462 0 0 0
5163 345 3 -1.5 -2132.988914214579 784.6747882665393 -1194.8379983658972 0 0 0
4066 272 1 0 -2626.200856724703 879.2186055696268 -1186.373830475409 0 0 0
4073 272 8 0 -2600.208390023217 859.8077364479852 -1138.7788001767317 0 0 0
4662 311 12 0 -1249.1575044389506 877.3844169199302 -1188.0740777775402 0 0 0
4660 311 10 1 -1198.3998948471133 916.7068252279613 -1193.8052507655552 0 0 0
4093 273 13 -0.5 -1116.4711825597972 952.1060287159053 -1181.6463240941157 0 0 0
5638 376 13 -0.5 -972.803104182108 1047.0343512090997 -1160.3240046879407 0 0 0
4087 273 7 2 -950.9985706960524 1032.8943314965118 -1193.1206454197943 0 0 0
4474 299 4 0 -2003.333313664778 1062.3048536229721 -1192.4241647118292 0 0 0
4091 273 11 1 -914.0158653918642 1064.0919593199587 -1168.722299531603 0 0 0
4089 273 9 0 -866.5002158902373 1102.8732526923636 -1143.391140334561 0 0 0
4095 273 15 0 -813.0321862728412 1116.3129462047839 -1160.16538482512 0 0 0
4183 279 13 -0.5 -848.3918333587146 1138.9373470811795 -1128.5298708846567 0 0 0
4173 279 3 -1.5 -826.7385500885094 1167.4440482175653 -1152.2117392037856 0 0 0
4182 279 12 0 -781.7711879408372 1187.231590035602 -1142.1853515771538 0 0 0
4082 273 2 0 -696.9004684725635 1136.4685355072454 -1148.2197506296677 0 0 0
4084 273 4 0 -651.9302850983333 1125.4652862467285 -1134.6235240690603 0 0 0
2176 146 1 0 -849.6875559826891 1246.5057007665596 -1146.384540764846 0 0 0
4175 279 5 0 -791.8689250100571 1253.9349135805965 -1174.0876379786882 0 0 0
5382 359 12 0 -602.1720001842995 1235.3649710266618 -1128.9363305890345 0 0 0
5380 359 10 1 -541.0689842734829 1246.3119833720136 -1133.3014431211943 0 0 0
4184 279 14 -1.5 -472.5266019697239 1232.161942998649 -1150.2401766699606 0 0 0
4904 327 14 -1.5 -461.7969539465893 1223.4771342383874 -1126.3276275389994 0 0 0
4176 279 6 -0.5 -496.8592006696693 1203.4041291727267 -1125.3465252579522 0 0 0
5385 359 15 0 -332.4384888951248 1260.676967411538 -1182.670030135394 0 0 0
4262 285 2 0 -247.38026767554666 1264.2769625455483 -1146.7977290729455 0 0 0
4264 285 4 0 -219.56577838587927 1260.2628794103823 -1199.5487511653857 0 0 0
4265 285 5 0 -618.2629628044485 1281.108630697505 -1154.6618832663653 0 0 0
4905 327 15 0 -505.79465492864773 1294.5989720087434 -1133.5172342751507 0 0 0
5376 359 6 -0.5 -316.39570897193516 1297.8007476379003 -1126.7533407468186 0 0 0
5384 359 14 -1.5 -279.03083949941873 1296.9886350931486 -1151.1363949243564 0 0 0
4235 283 5 0 -2136.4833713706676 1357.1717797078927 -1144.1269157137576 0 0 0
4353 291 3 -1.5 -2099.675759413649 1361.9483947233102 -1177.0914532137942 0 0 0
4363 291 13 -0.5 -2089.3221972723068 1350.279599930169 -1137.3356575640037 0 0 0
4243 283 13 -0.5 -2084.5662560714327 1454.421098277065 -1181.54832665457 0 0 0
3618 242 3 -1.5 -399.9179119056437 -1319.3941015917173 -1097.9404497970174 0 0 0
3628 242 13 -0.5 -405.9031614747354 -1284.6082776352657 -1073.7180429196846 0 0 0
2663 178 8 0 -229.65104783908188 -923.2040846214616 -1116.6671113717605 0 0 0
2660 178 5 0 -220.22349520152557 -833.2200933441653 -1067.4021202110598 0 0 0
2665 178 10 1 -88.28934532220643 -788.7769082093158 -1055.1285974028392 0 0 0
2662 178 7 2 -31.268218214922076 -801.1127808267688 -1078.560480451547 0 0 0
1310 88 5 0 -81.3092286006274 -715.9770006967103 -1050.005084898614 0 0 0
1313 88 8 0 -4.7236696340749935 -701.5428567969637 -1079.8932839453998 0 0 0
3443 230 8 0 -1973.819180758061 -648.13722163053 -1051.8478785787238 0 0 0
3436 230 1 0 -1927.3831301047687 -631.581929255612 -1066.5408743068808 0 0 0
5525 369 5 0 -2724.1136655179625 -560.1200318766635 -1081.1609944515512 0 0 0
255 17 15 0 -967.3844192145104 -573.7030959276791 -1113.200070613211 0 0 0
928 62 13 -0.5 -937.746193148511 -537.4466061427695 -1113.6217013965402 0 0 0
918 62 3 -1.5 -896.3071758066112 -525.9643795334658 -1115.893957762815 0 0 0
246 17 6 -0.5 -978.1922681617065 -511.46491045050675 -1122.7126462811812 0 0 0
254 17 14 -1.5 -938.6467817920717 -500.04961691682945 -1105.6956480394392 0 0 0
5530 369 10 1 -2678.593956113451 -437.87194877712693 -1121.5803192581561 0 0 0
5527 369 7 2 -2638.662812151917 -403.97353577694224 -1088.2992347161105 0 0 0
5531 369 11 1 -2601.234011316852 -379.6170343509415 -1058.1512388088245 0 0 0
3388 226 13 -0.5 -799.7632200268644 -380.99861857237414 -1107.4986555132461 0 0 0
3378 226 3 -1.5 -774.5760365100703 -384.62282831662077 -1072.7907485248074 0 0 0
3387 226 12 0 -740.3241852356069 -349.75069336078536 -1055.4344623529466 0 0 0
3385 226 10 1 -687.0831163060972 -319.66704934904425 -1069.4279293071434 0 0 0
930 62 15 0 -652.2028290270235 -333.83549215223127 -1097.049454028931 0 0 0
917 62 2 0 -595.2127595104622 -328.83535214694257 -1080.801952425266 0 0 0
921 62 6 -0.5 -668.6444654510591 -288.05813417550695 -1105.092989156074 0 0 0
929 62 14 -1.5 -636.4940258985046 -256.80881522715634 -1108.5196088519128 0 0 0
3382 226 7 2 -636.9423773055736 -285.46835548010773 -1079.7288290482793 0 0 0
5443 363 13 -0.5 -599.1657177926104 -281.6917923939318 -1061.7756409595124 0 0 0
919 62 4 0 -552.4982209198475 -294.7177504983696 -1066.5070950052232 0 0 0
3386 226 11 1 -591.9988933574276 -256.02724760445943 -1086.7335274058082 0 0 0
5433 363 3 -1.5 -570.1105046188626 -253.41222238506313 -1075.4353251900773 0 0 0
3384 226 9 0 -532.4428089186745 -233.06729933860763 -1091.6675875434873 0 0 0
656 44 11 1 -148.84195684748832 -229.63527375716583 -1095.3016861784906 0 0 0
3124 209 4 0 -851.8344398861842 -201.89630951479032 -1071.6710597445751 0 0 0
3381 226 6 -0.5 -497.5638118754088 -196.4686523248321 -1072.0044320792908 0 0 0
3125 209 5 0 -1308.0967753495704 -149.13579724914484 -1072.114809287619 0 0 0
5060 338 5 0 -1081.952965830646 -77.02728795258527 -1109.487665696857 0 0 0
5070 338 15 0 -804.9176383847201 -43.58688641427549 -1093.256622308611 0 0 0
5061 338 6 -0.5 -774.2239774858066 -47.62566848943291 -1067.891690450249 0 0 0
5069 338 14 -1.5 -739.5460633402918 -59.294239945820394 -1093.763050345541 0 0 0
1291 87 1 0 -1125.2178867774053 324.2312780683634 -1073.670634803527 0 0 0
3029 202 14 -1.5 -408.1799735695285 444.6187557448178 -1082.8188975096368 0 0 0
3021 202 6 -0.5 -433.35243068537704 420.50340721875045 -1055.3982836463795 0 0 0
4688 313 8 0 -2585.2483971776333 571.5678701819716 -1084.1299278243248 0 0 0
4681 313 1 0 -2537.5748695708135 538.7965548027151 -1102.8458993965924 0 0 0
4685 313 5 0 -2622.3460960419416 640.95457370496 -1056.9543509524706 0 0 0
5170 345 10 1 -2117.365620064798 811.2928066278902 -1090.0467083700157 0 0 0
4070 272 5 0 -2580.719707223087 882.7995914345536 -1070.3341203769598 0 0 0
4655 311 5 0 -1293.669835711585 891.34377173221 -1104.3127926629652 0 0 0
4651 311 1 0 -1430.6349434866675 976.9183826094702 -1054.1797731579331 0 0 0
5628 376 3 -1.5 -972.4645964177174 1049.5577923894173 -1117.7098013958275 0 0 0
5637 376 12 0 -939.062527937415 1068.6604061486364 -1088.2478495335663 0 0 0
5635 376 10 1 -891.9875304734335 1116.8835647164287 -1087.7315379579657 0 0 0
4893 327 3 -1.5 -799.1386998998847 1124.590753986191 -1099.1273956351044 0 0 0
4903 327 13 -0.5 -832.4655189580604 1134.2048394728674 -1124.6184408056151 0 0 0
4086 273 6 -0.5 -842.0298683877153 1135.3599423812075 -1111.1758307834295 0 0 0
5632 376 7 2 -845.9870440277662 1156.9864391398135 -1091.9119815632087 0 0 0
4094 273 14 -1.5 -809.0712314925992 1164.7831979222874 -1104.7854596692468 0 0 0
5636 376 11 1 -798.9800304547832 1184.2481681174304 -1094.6131952919295 0 0 0
4902 327 12 0 -766.2084839376489 1150.7513057855717 -1076.3713494111314 0 0 0
4180 279 10 1 -720.228190838724 1176.8261305486465 -1124.550259940151 0 0 0
4900 327 10 1 -705.1559111569599 1171.3676725005055 -1076.3232312996051 0 0 0
4177 279 7 2 -660.2128842227112 1172.9558334328015 -1110.4697419057136 0 0 0
4181 279 11 1 -606.9168084937602 1176.4298279953591 -1106.019668565898 0 0 0
4179 279 9 0 -543.7695887432654 1181.4546072894252 -1113.4155033064533 0 0 0
2183 146 8 0 -854.830655671132 1203.978116900986 -1110.1737795035488 0 0 0
4895 327 5 0 -831.1505507084116 1249.7875041387047 -1089.5496294900702 0 0 0
5634 376 9 0 -740.3624228076087 1215.6084551115923 -1109.054388146972 0 0 0
5631 376 6 -0.5 -684.598657342924 1210.6236171889875 -1122.1921842666948 0 0 0
5383 359 13 -0.5 -675.9375810159736 1215.8724061446637 -1101.9627378333464 0 0 0