LAMMPS data file via write_data, version 27 Jun 2024, timestep = 11840000, units = real

5730 atoms
15 atom types
5509 bonds
16 bond types
5730 angles
15 angle types

-3000 3000 xlo xhi
-1500 1500 ylo yhi
-1500 1500 zlo zhi

Masses

1 241.19
2 73.54000000000001
3 330.71
4 235.16
5 68.06999999999999
6 353.53
7 223.38
8 41.1
9 216.91
10 155.15
11 147.32
12 264.65
13 300.8
14 326.05
15 85.20999999999999

Pair Coeffs # lj/cut/coul/debye/gpu

1 0.71637 40.7505
2 0.665709 48.1397
3 1.15033 39.2216
4 0.726774 43.8077
5 0.514724 53.3428
6 1.17127 41.7847
7 1.2256 38.5601
8 0.675431 54.5696
9 1.26117 43.78
10 0.939007 42.5209
11 0.960667 41.1825
12 1.30988 48.0761
13 1.36645 37.7114
14 1.35529 39.2179
15 0.592003 47.2602

Bond Coeffs # harmonic

1 0.003 59.228
2 0.008 56.48
3 0.001 69.324
4 3.207 42.88
5 0.11 49.807
6 0.002 74.968
7 0.001 91.635
8 0.145 54.383
9 2.709 44.406
10 1.71 61.679
11 1.625 54.051
12 0.207 66.185
13 0.002 64.76
14 0.079 63.886
15 0.2 40
16 0.2 40

Angle Coeffs # harmonic

1 11.427 158.273
2 50.464 132.042
3 8.207 156.514
4 92.705 149.394
5 100 174.44
6 3.15 145.53
7 48.938 159.031
8 17.401 129.945
9 15.735 56.441
10 60 172.254
11 60.285 168.396
12 11.83 99.091
13 150 107.995
14 27.746 149.925
15 7.483 160.775

Atoms # full

2410 161 10 1 -2255.4204148636577 -1485.5400407021848 -1473.221998208998 0 0 0
3616 242 1 0 -343.4764756248784 -1296.6699223335452 -1446.8823334178312 0 0 0
3774 252 9 0 -1725.097762854856 -1209.893597964563 -1461.1874424892192 0 0 0
3771 252 6 -0.5 -1681.3118733955323 -1232.640787874218 -1482.5761898033286 0 0 0
3779 252 14 -1.5 -1649.25000088124 -1263.0858082152524 -1483.8517392578985 0 0 0
1815 121 15 0 -2354.855705207261 -697.3643856317038 -1470.9232474229277 0 0 0
2926 196 1 0 -2536.6007625502116 -429.6851763557049 -1456.5690788863947 0 0 0
2582 173 2 0 -1641.190687642794 -433.17049444488157 -1460.032298142395 0 0 1
2933 196 8 0 -2561.2210071017507 -371.8797998487894 -1430.2333757619265 0 0 0
2586 173 6 -0.5 -1692.3337999121884 -366.09772256014935 -1480.232897452932 0 0 1
2594 173 14 -1.5 -1670.1403662375726 -363.66218798446687 -1442.202629369473 0 0 1
646 44 1 0 -290.3543853669363 -227.23026593089605 -1469.9089040044657 0 0 0
653 44 8 0 -308.00136247570936 -177.29696753340625 -1487.6164486623188 0 0 0
1079 72 14 -1.5 -400.0495501450317 -121.97732228751777 -1486.4848324845532 0 0 1
650 44 5 0 -329.8329576630075 -107.27255543546428 -1464.7896945863838 0 0 0
658 44 13 -0.5 -375.5630115600875 -29.74556449461276 -1465.654984826851 0 0 0
648 44 3 -1.5 -350.19627971738646 -6.962770788650785 -1438.752071496304 0 0 0
1058 71 8 0 -483.14340008672326 299.88012637057454 -1478.7257416637474 0 0 0
1055 71 5 0 -479.59498036178934 347.3696043567281 -1443.3777873388974 0 0 0
4925 329 5 0 -1804.4358902932229 422.3064333929292 -1427.2669678064944 0 0 0
4932 329 12 0 -1801.9020581857471 498.1795948043166 -1480.5197098914275 0 0 0
1423 95 13 -0.5 -1623.2911332436045 516.2484991022258 -1441.1899632073487 0 0 0
4930 329 10 1 -1843.8325168971876 536.300955611107 -1452.5929259161312 0 0 0
1413 95 3 -1.5 -1581.8458132715864 525.5334742373462 -1438.0843495291615 0 0 0
1415 95 5 0 -1632.6571853767066 611.0426710705266 -1439.3461037912791 0 0 0
1418 95 8 0 -1692.8272212955262 676.4136768158885 -1444.371510291888 0 0 0
1411 95 1 0 -1706.686853763917 725.1460585528301 -1470.5494794071142 0 0 0
4081 273 1 0 -1087.2797779348987 962.1903380854554 -1471.1070745986221 0 0 0
4480 299 10 1 -2032.2856666999774 993.7649303974902 -1455.4280376995875 0 0 0
2407 161 7 2 -2227.7530258060256 -1498.4819778425424 -1420.0406952197459 0 0 0
3623 242 8 0 -326.2163784354461 -1353.55012595805 -1423.0012292884164 0 0 0
3620 242 5 0 -281.9925159625889 -1353.860836831915 -1366.489449969088 0 0 0
3772 252 7 2 -1812.9559978072782 -1180.016966312593 -1387.7120002812962 0 0 0
3775 252 10 1 -1858.6765768037628 -1159.6644645698818 -1350.584445466078 0 0 0
3776 252 11 1 -1770.4080784008656 -1195.8193555712671 -1418.163244572287 0 0 0
1809 121 9 0 -2414.890471631751 -713.7530819803851 -1411.5308217842007 0 0 0
1811 121 11 1 -2470.8796011492705 -679.8842006517542 -1394.241701410271 0 0 0
1806 121 6 -0.5 -2364.2508143847613 -726.8831114710889 -1413.8415064301098 0 0 0
1814 121 14 -1.5 -2321.9293086107364 -722.9525269875237 -1401.2891923901518 0 0 0
1810 121 10 1 -2553.015982341272 -601.2205521263284 -1371.3359352412936 0 0 0
1807 121 7 2 -2508.604206459773 -643.0005042215918 -1381.599112861463 0 0 0
1812 121 12 0 -2591.061936570285 -551.1454113378578 -1360.0547311967564 0 0 0
1813 121 13 -0.5 -2635.2843085297573 -507.37056437615786 -1415.8305560964825 0 0 0
1803 121 3 -1.5 -2624.125964111268 -514.4839695675472 -1374.6567154711154 0 0 0
2584 173 4 0 -1660.940755331061 -456.80812408875494 -1414.9506381808578 0 0 1
241 17 1 0 -1279.8845204372917 -460.06193963348005 -1365.680899217877 0 0 0
963 65 3 -1.5 -2810.939080497448 -308.4035511542734 -1355.6923960075542 0 0 0
973 65 13 -0.5 -2843.1104761314027 -325.72037662608193 -1377.5906361888321 0 0 0
970 65 10 1 -2703.79275540165 -301.35911461364714 -1354.465605803212 0 0 0
2930 196 5 0 -2581.1591870952784 -321.60287831579245 -1386.8376582193528 0 0 0
972 65 12 0 -2763.851116985195 -298.71588378218263 -1366.7048257245062 0 0 0
962 65 2 0 -2437.37961296439 -239.19927661368467 -1366.8132381178893 0 0 0
2929 196 4 0 -2138.4379022316534 -279.27980888122966 -1355.4392176529086 0 0 0
965 65 5 0 -2788.344872386138 -203.51313634303756 -1371.4145730646533 0 0 0
964 65 4 0 -2428.6659187083883 -205.92317157347358 -1410.6178595516149 0 0 0
657 44 12 0 -309.31922162754876 -22.112405365500265 -1417.880872669732 0 0 0
655 44 10 1 -286.2600170978603 -36.528494546399585 -1360.4276208288995 0 0 0
1711 115 1 0 -407.89643637182326 170.88033864832127 -1369.447530987604 0 0 0
4928 329 8 0 -1827.9627749749548 367.9626845559772 -1400.0317626052006 0 0 0
4921 329 1 0 -1842.5120698693688 301.77653972824044 -1392.5880303840358 0 0 0
1063 71 13 -0.5 -573.7428615992069 425.24132145897966 -1392.55121023012 0 0 0
1053 71 3 -1.5 -555.4052113367978 442.2819606557197 -1358.3231678417828 0 0 0
4931 329 11 1 -1911.953904968348 596.4701817458945 -1381.5601836923474 0 0 0
4927 329 7 2 -1883.7987884637532 567.2776261868931 -1416.449035452384 0 0 0
1422 95 12 0 -1559.3494496340898 563.7962994833279 -1417.3245900519676 0 0 0
1420 95 10 1 -1532.1259227307935 589.698381306284 -1370.17894674416 0 0 0
4474 299 4 0 -1738.381439753547 966.5799250755781 -1360.6097896578067 0 0 0
4477 299 7 2 -1989.3915218238408 1006.6400960618923 -1413.8981289323433 0 0 0
4481 299 11 1 -1951.8739705651583 1014.2809115470732 -1375.4481292225685 0 0 0
4088 273 8 0 -1075.4388976151486 989.0189157239863 -1392.3925777927573 0 0 0
4654 311 4 0 -1004.0342848130446 1033.0916936398837 -1420.9792076059769 0 0 0
4652 311 2 0 -1002.6048817140329 1050.6835801776895 -1366.9306808410302 0 0 0
2411 161 11 1 -2201.630430089384 1494.579283710173 -1374.275249135266 0 -1 0
2415 161 15 0 -2134.574389603087 -1466.4677680047696 -1281.565953676892 0 0 0
3627 242 12 0 -267.3067450784893 -1371.463794052851 -1275.1380641839974 0 0 0
3777 252 12 0 -1909.1453533726099 -1137.9810891432055 -1321.346909528658 0 0 0
3768 252 3 -1.5 -1931.9682576704204 -1096.6259243611994 -1306.7470265081251 0 0 0
248 17 8 0 -1286.6590822393905 -494.0087099656553 -1290.69913807662 0 0 0
971 65 11 1 -2592.096848180594 -301.43931842022005 -1330.0769204817211 0 0 0
969 65 9 0 -2528.0585279641805 -309.3132777201274 -1317.5171711825858 0 0 0
966 65 6 -0.5 -2480.948183026652 -311.99032678950425 -1287.4270033918135 0 0 0
967 65 7 2 -2642.2267918455973 -297.6992854344503 -1348.3428583840794 0 0 0
2938 196 13 -0.5 -2648.2157835000726 -294.92260449405336 -1308.700320122827 0 0 0
2937 196 12 0 -2564.4724030837833 -281.67194097838 -1293.7190407138771 0 0 0
2928 196 3 -1.5 -2613.0936508353257 -289.8968436889822 -1284.0384623615996 0 0 0
2935 196 10 1 -2499.851719407255 -285.6304460212081 -1285.3338871995975 0 0 0
975 65 15 0 -2471.9000206264463 -277.00688242691007 -1333.0890771952609 0 0 0
2932 196 7 2 -2438.2598464971798 -277.1782825765013 -1282.2620522987327 0 0 0
2936 196 11 1 -2384.6204304789385 -270.8634728119173 -1278.8887974528973 0 0 0
2934 196 9 0 -2324.5272974908635 -243.39411498769078 -1280.238017425676 0 0 0
2940 196 15 0 -2283.151070427188 -239.98242718534803 -1310.2421170863743 0 0 0
2927 196 2 0 -2196.215624291453 -281.1535497447552 -1332.3994163783896 0 0 0
2939 196 14 -1.5 -2255.1774860704936 -177.35986937350484 -1281.7313640390269 0 0 0
961 65 1 0 -2862.9360350517827 -79.79219272599599 -1304.7341896854523 0 0 0
968 65 8 0 -2822.1959415735987 -123.46335175158708 -1348.8888057226627 0 0 0
3121 209 1 0 -1081.3129969071524 -36.489056143238905 -1286.7433511167885 0 0 0
652 44 7 2 -257.33272844168806 -45.1120402010047 -1305.8989594495145 0 0 0
1718 115 8 0 -360.6570080754604 189.65923384508207 -1338.1213134384243 0 0 0
1715 115 5 0 -352.64335108214595 267.8930795132839 -1287.3753351075916 0 0 0
1062 71 12 0 -512.7791592006542 434.96016730739774 -1337.4437624371024 0 0 0
1060 71 10 1 -462.1198103520222 460.68553837792365 -1314.8470307651621 0 0 0
1057 71 7 2 -410.42034415769837 493.0971478119843 -1301.0641038561475 0 0 0
1054 71 4 0 -142.22611965016466 523.4380886503824 -1311.6847210147298 0 0 0
1061 71 11 1 -369.0630622062541 525.7591765076181 -1288.2318964970689 0 0 0
1056 71 6 -0.5 -272.43978340303124 592.5402619076709 -1280.2415528189829 0 0 0
1052 71 2 0 -190.36746769634692 531.4006959806917 -1279.0363024346514 0 0 0
4926 329 6 -0.5 -1981.4771302891827 614.3786198103417 -1287.4058028903935 0 0 0
4929 329 9 0 -1945.1399501050494 619.0080291445582 -1326.5159256036318 0 0 0
1417 95 7 2 -1492.4223844259986 602.4340801984412 -1324.8946958039787 0 0 0
1421 95 11 1 -1456.913697711156 621.8105614856656 -1289.040476579159 0 0 0
1064 71 14 -1.5 -249.21226699455656 616.5794055663481 -1308.6818908051857 0 0 0
4479 299 9 0 -1910.3257948075006 1040.0704885929233 -1327.755248828215 0 0 0
4476 299 6 -0.5 -1870.3127683888217 1045.7859324042088 -1292.075604702729 0 0 0
4485 299 15 0 -1820.3520902337486 1040.9587673204232 -1326.9172032064864 0 0 0
4472 299 2 0 -1761.8177622806315 1010.7362431193098 -1338.7608217456775 0 0 0
4085 273 5 0 -1064.706946880915 986.2349042550007 -1345.5383848835622 0 0 0
4665 311 15 0 -1016.1642661785096 1052.2632531619902 -1316.3965150406393 0 0 0
4268 285 8 0 -657.3955243130423 1184.987805887548 -1285.8324917509208 0 0 0
4232 283 2 0 -1893.276238771218 1230.590455341554 -1298.389491340143 0 0 0
4234 283 4 0 -1859.2606263088207 1225.5015776290625 -1338.7007390307322 0 0 0
4261 285 1 0 -722.02394747118 1212.6364336772297 -1306.7336945777122 0 0 0
4238 283 8 0 -2175.2149921878986 1454.1705616732097 -1291.7887619953929 0 0 0
4231 283 1 0 -2145.0874158637703 1454.8078843758876 -1344.1551918019734 0 0 0
2409 161 9 0 -2170.676364575219 1498.665278103824 -1315.8937719338185 0 -1 0
3622 242 7 2 -163.17451481241557 -1439.5365284187708 -1253.0877819809677 0 0 0
3626 242 11 1 -115.78369140803122 -1464.7023171693288 -1248.9967871237955 0 0 0
3624 242 9 0 -64.53847800065905 -1497.5269823271628 -1227.841161751191 0 0 0
2402 161 2 0 -2104.5211223382944 -1421.3288831044406 -1216.3529878771842 0 0 0
3618 242 3 -1.5 -317.3242042905366 -1366.3376039455864 -1266.4709239027434 0 0 0
3628 242 13 -0.5 -337.1752843046297 -1357.4424358526535 -1229.35680400229 0 0 0
3625 242 10 1 -213.73246322947116 -1409.6559836230263 -1267.6824127876794 0 0 0
3770 252 5 0 -1893.339145287199 -1152.490517878778 -1225.6543952860584 0 0 0
3778 252 13 -0.5 -1957.533672800085 -1085.4096884189294 -1274.4819228265196 0 0 0
1805 121 5 0 -2607.907235715199 -547.4735203041947 -1232.656318304526 0 0 0
245 17 5 0 -1261.9250082781084 -512.3638615576124 -1240.211518423636 0 0 0
974 65 14 -1.5 -2459.4651888188746 -293.49172096841346 -1253.7753109362436 0 0 0
2931 196 6 -0.5 -2281.2558801195514 -212.501940630708 -1271.5183576073562 0 0 0
3128 209 8 0 -1105.1757066265993 -73.37826787008238 -1232.59755758832 0 0 0
656 44 11 1 -237.46248785370932 -59.39697308126709 -1258.1168823170938 0 0 0
654 44 9 0 -204.23858950124009 -67.14082761727407 -1204.3074003446454 0 0 0
5059 338 4 0 -570.1739106303671 55.88612972586868 -1230.9241911379397 0 0 0
1059 71 9 0 -314.9383970390713 560.2150338515972 -1273.5776705824326 0 0 0
1065 71 15 0 -232.21033894895814 532.6463107259734 -1268.1912200934862 0 0 0
4934 329 14 -1.5 -1990.1433632277488 624.7610166082092 -1244.637280668155 0 0 0
4935 329 15 0 -1928.264850365811 663.3678663371782 -1265.8984239203683 0 0 0
1419 95 9 0 -1412.4862501980633 655.9520396084893 -1254.8824823095522 0 0 0
1416 95 6 -0.5 -1386.576511079073 697.0093337222838 -1228.7493930967662 0 0 0
1424 95 14 -1.5 -1356.581307785776 729.0382689804522 -1229.6828152765272 0 0 0
4683 313 3 -1.5 -2880.2281306727077 858.9548887420981 -1215.0325703240937 0 0 0
4693 313 13 -0.5 -2912.286872041429 853.8426668644811 -1243.0320615162123 0 0 0
4663 311 13 -0.5 -1311.1628817415549 870.9822731974106 -1249.9838321855286 0 0 0
4653 311 3 -1.5 -1318.4111876738261 911.8350745303558 -1260.317387068399 0 0 0
4662 311 12 0 -1285.1770977476178 949.0831488390746 -1251.1651129999043 0 0 0
4660 311 10 1 -1229.7396266729065 973.8453063319844 -1236.9359844051348 0 0 0
4651 311 1 0 -1482.3924904470614 1048.6714658457843 -1206.6241160780605 0 0 0
4093 273 13 -0.5 -1151.1621522546725 981.2909073145975 -1259.3217243920435 0 0 0
4657 311 7 2 -1175.2756698077446 1002.7493080958608 -1235.6259094870738 0 0 0
4661 311 11 1 -1129.730614303836 1032.4021970549823 -1231.8839072056217 0 0 0
4083 273 3 -1.5 -1108.8614078603243 981.9112788702553 -1253.2106140517249 0 0 0
4092 273 12 0 -1071.4861427652295 1009.2498938831052 -1270.241544108565 0 0 0
4090 273 10 1 -1024.7544808057303 1047.69217700735 -1257.462027635065 0 0 0
4484 299 14 -1.5 -1852.0404067802024 1068.629102715826 -1258.3752883150348 0 0 0
4659 311 9 0 -1070.1770941278796 1056.833138239678 -1246.304094307188 0 0 0
5628 376 3 -1.5 -976.2632744367506 1085.3669229861734 -1272.6029273570057 0 0 0
4656 311 6 -0.5 -1030.581037236202 1089.8729451722086 -1260.5422220551172 0 0 0
5638 376 13 -0.5 -1012.093041059804 1072.6728990354889 -1252.5299243515997 0 0 0
4664 311 14 -1.5 -988.0400366660222 1097.381101362262 -1269.342772786594 0 0 0
4087 273 7 2 -976.7365094636189 1078.4497451154048 -1236.0532978450938 0 0 0
4091 273 11 1 -937.1633340389376 1104.7186091584579 -1208.202997631196 0 0 0
5637 376 12 0 -941.7034248869869 1115.9249570940653 -1262.9690910750514 0 0 0
4183 279 13 -0.5 -812.2071279534556 1117.7963463688588 -1221.1410738012698 0 0 0
4359 291 9 0 -1981.7728118324276 1177.7081184678752 -1242.5430749701377 0 0 0
4239 283 9 0 -1992.5125914612067 1198.8179706005728 -1202.6679736430847 0 0 0
4365 291 15 0 -1953.8681109400686 1133.5710571854759 -1206.6026702781655 0 0 0
4364 291 14 -1.5 -1893.9362484942935 1184.4729867390213 -1270.436377542348 0 0 0
4356 291 6 -0.5 -1932.4381064167528 1169.5122843727065 -1255.863959237783 0 0 0
4236 283 6 -0.5 -1939.8144595948763 1178.0518568710509 -1208.1250209475836 0 0 0
5630 376 5 0 -1009.2223466407427 1164.0773494467321 -1204.3101910167632 0 0 0
5635 376 10 1 -883.0870810892847 1126.0171684060422 -1239.6112940604307 0 0 0
5632 376 7 2 -831.1708925513963 1148.9106426769697 -1215.3477587873554 0 0 0
4893 327 3 -1.5 -818.2040420664155 1136.6525624307387 -1210.6570660758218 0 0 0
4903 327 13 -0.5 -813.400033128884 1137.3022194985463 -1253.6730592041192 0 0 0
4173 279 3 -1.5 -781.0383484867373 1145.1346138155825 -1232.6813963106997 0 0 0
4094 273 14 -1.5 -800.0808222890672 1174.7381577504036 -1211.4078615928033 0 0 0
4182 279 12 0 -749.0290524314678 1166.960400885837 -1208.8409410611482 0 0 0
4361 291 11 1 -2034.855941909588 1214.4838895185455 -1225.9538078296582 0 0 0
4357 291 7 2 -2082.1010252620836 1233.2498835522076 -1207.5525532673216 0 0 0
4245 283 15 0 -1925.261044467483 1219.2926349704808 -1263.5179207891347 0 0 0
4175 279 5 0 -763.380179296665 1267.704847757243 -1254.012594556836 0 0 0
4265 285 5 0 -593.0740729429823 1211.8960630053916 -1225.8770412327633 0 0 0
4178 279 8 0 -762.9905507933836 1338.8724214265108 -1274.6442438809047 0 0 0
4235 283 5 0 -2183.998239485669 1421.0022629496204 -1218.875317986157 0 0 0
4171 279 1 0 -726.5905578028486 1375.7807787279257 -1267.9550293044813 0 0 0
3617 242 2 0 -4.427337416595301 1370.8456585205213 -1216.6302156884592 0 -1 0
2414 161 14 -1.5 -2155.2222802980964 1470.0693508358256 -1228.2114423082546 0 -1 0
2406 161 6 -0.5 -2164.501612930651 1496.1256059283414 -1263.5006015406839 0 -1 0
3621 242 6 -0.5 -17.068500500304697 1481.3531852384979 -1224.3803204633252 0 -1 0
3630 242 15 0 -41.09172047479129 1427.4049826523312 -1231.1661228488756 0 -1 0
4351 291 1 0 -2200.974572917463 -1485.06759453626 -1151.9419878535348 0 1 0
2404 161 4 0 -2061.550076539005 -1384.816715938142 -1188.8331020689832 0 0 0
3773 252 8 0 -1897.6020896296222 -1103.3298742153793 -1140.673932255364 0 0 0
3766 252 1 0 -1864.5989196308556 -1049.102567242198 -1148.082975727399 0 0 0
2660 178 5 0 -308.56065266062484 -751.2529115117906 -1140.6273151987687 0 0 0
2664 178 9 0 -23.878873481592876 -801.4096852533474 -1127.13940880079 0 0 0
1618 108 13 -0.5 -1511.7363384361572 -657.7657688968189 -1195.5213122097587 0 0 0
1608 108 3 -1.5 -1488.4243741289492 -623.1293746319925 -1188.0594915084994 0 0 0
1617 108 12 0 -1462.5221696031167 -605.7892410131473 -1145.2419771926368 0 0 0
2656 178 1 0 -375.1097314944392 -659.3483871213297 -1198.4900195414516 0 0 0
2663 178 8 0 -354.52029832352434 -672.8677785383372 -1137.0529820164393 0 0 0
1808 121 8 0 -2597.900267378913 -527.1342063676352 -1166.3180229107195 0 0 0
243 17 3 -1.5 -1300.1233632992185 -549.0127125572764 -1126.5803019040666 0 0 0
252 17 12 0 -1252.9197144167474 -548.3819488298574 -1143.1571184489205 0 0 0
1619 108 14 -1.5 -1157.3610307858778 -539.4963228672414 -1144.6557022911134 0 0 0
250 17 10 1 -1192.9944915220601 -552.9068822146855 -1132.0765827001435 0 0 0
916 62 1 0 -898.4024681481924 -591.8917090267684 -1132.2411784905182 0 0 0
1801 121 1 0 -2532.942931926808 -511.6924268572039 -1153.4714397423984 0 0 0
1611 108 6 -0.5 -1195.9262508078089 -519.4209988576551 -1135.921307407506 0 0 0
647 44 2 0 -100.2018231393478 -161.3504928936952 -1149.704615328449 0 0 0
649 44 4 0 -52.894283819346 -186.31167777412136 -1127.699533625125 0 0 0
3125 209 5 0 -1130.1136954750975 -80.98587142074963 -1175.0302865648612 0 0 0
660 44 15 0 -157.34466325621304 -100.55605514482379 -1184.9959202499738 0 0 0
5070 338 15 0 -678.1731328020871 -2.6583408013070726 -1133.90176977079 0 0 0
651 44 6 -0.5 -194.36203617897294 -67.95350144717585 -1150.335300849221 0 0 0
5057 338 2 0 -593.7533285081591 35.99241453614295 -1187.559503134599 0 0 0
1723 115 13 -0.5 -454.2191054475123 288.37434185734367 -1137.6756633456287 0 0 0
1713 115 3 -1.5 -431.5968901304882 298.4296273391159 -1173.4455535278883 0 0 0
1722 115 12 0 -380.83019992576175 304.82955074740147 -1182.2385671051177 0 0 0
1720 115 10 1 -332.4567173449059 337.0300552506043 -1158.7737631788862 0 0 0
1717 115 7 2 -287.50510060846796 376.23548091401875 -1144.9009723285421 0 0 0
1721 115 11 1 -247.98721414950444 411.7915791508856 -1134.8085341886422 0 0 0
1712 115 2 0 -54.36982305555132 498.23468420248776 -1171.6205891225036 0 0 0
1714 115 4 0 -23.92695782454412 539.4686151795179 -1183.0087900664757 0 0 0
1425 95 15 0 -1390.994140950488 642.791903040346 -1175.78984391526 0 0 0
4681 313 1 0 -2987.48877360419 720.7311403476031 -1189.722523853443 0 0 0
4922 329 2 0 -1870.6429748491262 702.5377439318612 -1192.9319256265799 0 0 0
4924 329 4 0 -1822.1821703600663 735.8712924078349 -1191.9499531214349 0 0 0
4688 313 8 0 -2942.542072756861 751.8910973103972 -1156.1104479727558 0 0 0
4685 313 5 0 -2900.018724006391 796.0624175152573 -1166.5886887500694 0 0 0
4692 313 12 0 -2883.9378739234426 854.9699931361515 -1165.6457601961567 0 0 0
4066 272 1 0 -2657.8774108682064 944.6990589130701 -1133.2933439835417 0 0 0
4354 291 4 0 -1919.5974968801406 1046.7661851921812 -1130.6752769938312 0 0 0
4658 311 8 0 -1433.838619406248 1038.302412909482 -1159.353889406487 0 0 0
4655 311 5 0 -1373.562443097872 1017.1499186896358 -1182.1005078870173 0 0 0
4084 273 4 0 -722.8384825392126 1042.336345419871 -1152.1878057335311 0 0 0
4352 291 2 0 -1918.982363341573 1079.6703096717408 -1151.7990613589545 0 0 0
4082 273 2 0 -765.4712632261449 1086.3340373713365 -1165.5372926752307 0 0 0
4244 283 14 -1.5 -1899.6610241635642 1173.851429909895 -1191.4369339912053 0 0 0
4095 273 15 0 -833.92254622979 1130.034046913558 -1172.1544979180128 0 0 0
4089 273 9 0 -884.1102095465502 1139.8738038830575 -1190.1597159353942 0 0 0
4086 273 6 -0.5 -840.6404673899765 1169.6963898561612 -1194.3206332482296 0 0 0
5636 376 11 1 -791.0970600277406 1179.2763212039058 -1193.4748005882202 0 0 0
4902 327 12 0 -786.026600821912 1134.4949251963255 -1176.6784873229842 0 0 0
4180 279 10 1 -696.6853718245038 1171.6977696764477 -1170.7170123848346 0 0 0
4900 327 10 1 -733.8228611841154 1156.5640884174793 -1149.308812930712 0 0 0
4897 327 7 2 -684.2726259140692 1188.224230538337 -1130.348358290995 0 0 0
4177 279 7 2 -642.9140501761672 1175.8481050404218 -1141.5700390404988 0 0 0
5382 359 12 0 -606.2394739181888 1198.2742859299826 -1165.03613282776 0 0 0
5373 359 3 -1.5 -653.5820288897918 1196.1329014647183 -1180.1995319887803 0 0 0
4360 291 10 1 -2137.295370360443 1249.8416858990026 -1184.4985154572314 0 0 0
4237 283 7 2 -2091.5123190064737 1262.7439300725625 -1178.3588197098504 0 0 0
4241 283 11 1 -2044.5402374238024 1236.5548988572623 -1184.1790639956587 0 0 0
5633 376 8 0 -1025.5763451337154 1204.4273706366594 -1144.94818184404 0 0 0
5631 376 6 -0.5 -683.7363165932016 1210.3268861002439 -1154.307920597379 0 0 0
5634 376 9 0 -734.6094857894241 1202.0586548480828 -1167.3137846761251 0 0 0
5383 359 13 -0.5 -689.2643366971042 1212.5451609316174 -1161.948549158235 0 0 0
4273 285 13 -0.5 -682.274311203042 1219.4776901345458 -1150.7447233654761 0 0 0
4263 285 3 -1.5 -640.7417173130722 1220.227852181018 -1140.981231013505 0 0 0
4272 285 12 0 -601.9995658978797 1248.8635586102116 -1151.6863645653523 0 0 0
5380 359 10 1 -549.9143446240457 1219.884024320916 -1153.260083231118 0 0 0
4270 285 10 1 -541.8918486425239 1268.3470186221753 -1132.6049471293281 0 0 0
5377 359 7 2 -496.22437123086115 1243.5264440507074 -1134.9217822411806 0 0 0
4184 279 14 -1.5 -458.5208611308322 1253.7022292871563 -1135.5162846758415 0 0 0
4353 291 3 -1.5 -2233.7876250335958 1277.144318808875 -1147.7112267365721 0 0 0
4362 291 12 0 -2188.291815931054 1276.8368282985925 -1165.470512006912 0 0 0
4242 283 12 0 -2194.655318008785 1329.4233803154095 -1158.544674590785 0 0 0
4233 283 3 -1.5 -2234.5994695300806 1340.408561006118 -1134.089097339494 0 0 0
4240 283 10 1 -2144.3938893313616 1291.780245790959 -1165.972476736908 0 0 0
4355 291 5 0 -2179.657659060279 1368.5157346906608 -1193.211161035017 0 0 0
4358 291 8 0 -2202.6637900198148 1459.6809944797376 -1182.5976095855415 0 0 0
2668 178 13 -0.5 -296.29160341394214 -914.1340704989251 -1104.3127278454144 0 0 0
2658 178 3 -1.5 -295.95235630598313 -871.341538320451 -1109.576867127979 0 0 0
2667 178 12 0 -257.41475545737717 -838.5677022214923 -1102.913267697439 0 0 0
2665 178 10 1 -195.89672052009922 -822.8358125852966 -1090.5103979467438 0 0 0
2662 178 7 2 -134.98914358754485 -811.5579969756894 -1090.547638902275 0 0 0
2666 178 11 1 -83.16116064326482 -801.1723525336407 -1099.8791100392107 0 0 0
5533 369 13 -0.5 -2638.8208559673585 -618.9436775338 -1086.8215715749432 0 0 0
5523 369 3 -1.5 -2631.623763495834 -577.1380747165305 -1081.0196905501964 0 0 0
1610 108 5 0 -1549.6648287132361 -570.2708075546318 -1109.154585611761 0 0 0
1615 108 10 1 -1409.747633337019 -569.3597998947876 -1121.306120035032 0 0 0
1612 108 7 2 -1355.3580878660289 -546.9497119796503 -1103.0441431967656 0 0 0
1616 108 11 1 -1304.6596338754164 -531.5613767942729 -1093.7942486012237 0 0 0
253 17 13 -0.5 -1319.054804591033 -531.3056830968895 -1093.0628137582548 0 0 0
247 17 7 2 -1134.3870951771016 -547.5252633326561 -1112.7226899371701 0 0 0
251 17 11 1 -1083.2242355738633 -535.8875542511183 -1098.376304383335 0 0 0
923 62 8 0 -865.5171745595691 -568.9910793471174 -1096.8721857221235 0 0 0
920 62 5 0 -889.0455621492191 -526.1983299138979 -1054.597527604803 0 0 0
1613 108 8 0 -1624.5181217634915 -524.9970300295239 -1050.5367718627604 0 0 0
1614 108 9 0 -1241.2619226837733 -514.0025706078495 -1108.3460671678504 0 0 0
1620 108 15 0 -1187.5061123640844 -524.0896146282188 -1096.1523923130642 0 0 0
1607 108 2 0 -1154.667345202632 -507.55444743083495 -1090.7016043354608 0 0 0
1609 108 4 0 -1100.302305441408 -509.39026927226405 -1067.4493867845738 0 0 0
249 17 9 0 -1025.7568452546666 -506.9718646419048 -1080.7932232255173 0 0 0
246 17 6 -0.5 -975.9925470351843 -505.8520340578159 -1057.219024953183 0 0 0
254 17 14 -1.5 -935.8239522542563 -489.5559913039878 -1050.429513609304 0 0 0
5443 363 13 -0.5 -511.8070865416621 -314.70150174755884 -1069.7281323321395 0 0 0
919 62 4 0 -541.7167543752837 -264.047563677282 -1059.0614548122637 0 0 0
3381 226 6 -0.5 -487.4310017493485 -219.07246202875146 -1063.405016980949 0 0 0
3389 226 14 -1.5 -459.5238102602172 -195.90028267520327 -1088.9405147457705 0 0 0
659 44 14 -1.5 -172.94698662596707 -83.04938396666132 -1114.2318079129452 0 0 0
3133 209 13 -0.5 -1200.1538452929997 -65.11370295059662 -1087.3082232466134 0 0 0
3123 209 3 -1.5 -1167.6783345569786 -59.161334338702204 -1059.5643711941439 0 0 0
3132 209 12 0 -1121.9394050007988 -74.61459924962344 -1064.9382071473483 0 0 0
3130 209 10 1 -1058.7373868658544 -70.26375115316898 -1052.6978862620708 0 0 0
3129 209 9 0 -879.20589994763 -53.55038696739196 -1063.9194020224186 0 0 0
3126 209 6 -0.5 -832.4790489912081 -31.269611374082576 -1083.2132742047806 0 0 0
5062 338 7 2 -827.451017854059 -21.307107731213495 -1064.0171471964945 0 0 0
5066 338 11 1 -777.9505443684584 -37.35817410087311 -1077.117400729991 0 0 0
3134 209 14 -1.5 -789.3775039049074 -22.599293474081048 -1077.4438356591515 0 0 0
5064 338 9 0 -713.9040819306789 -43.18551184516017 -1095.885030875522 0 0 0
5061 338 6 -0.5 -661.0899892593155 -35.838990405888474 -1099.1814536420957 0 0 0
5069 338 14 -1.5 -619.4772513348182 -50.86636409325454 -1104.1453938606828 0 0 0
1003 67 13 -0.5 -1113.0927603474986 276.95914433640627 -1086.3083122310834 0 0 0
1291 87 1 0 -1099.4241883213147 365.2401010617208 -1113.013607372419 0 0 0
1298 87 8 0 -1100.2108598579255 408.31934224998355 -1057.5121363009484 0 0 0
1719 115 9 0 -197.0735941637008 444.77118427309813 -1108.2995379336633 0 0 0
1716 115 6 -0.5 -153.7873463448086 450.47898046623834 -1074.911888410757 0 0 0
1725 115 15 0 -122.36434242613106 456.42977456393146 -1119.5969765003636 0 0 0
1724 115 14 -1.5 -113.16037727135509 469.29907144663065 -1069.0692668417528 0 0 0
5161 345 1 0 -1934.3664540553675 650.7548139842361 -1114.979522193276 0 0 0
1412 95 2 0 -1395.7298935493077 660.9722547009949 -1110.3014938298122 0 0 0
5168 345 8 0 -1972.5111832337193 683.84011227735 -1080.3807692061791 0 0 0
4069 272 4 0 -2430.2778909431163 818.5277466149171 -1117.2173232648424 0 0 0
4067 272 2 0 -2435.6889957033545 798.8833037434397 -1068.549723175771 0 0 0
4690 313 10 1 -2863.358678979981 863.4610183416638 -1108.0271782725756 0 0 0
4687 313 7 2 -2834.742593538778 859.851304854722 -1052.7447583293506 0 0 0
4073 272 8 0 -2677.275381390662 884.1522295967937 -1076.2829476071204 0 0 0
4898 327 8 0 -892.3038378130865 1030.9677290154052 -1068.1494853047757 0 0 0
4895 327 5 0 -838.6416924232236 1081.8203240317055 -1096.2834631732142 0 0 0
5375 359 5 0 -644.1672109293694 1179.4118013208654 -1089.959188589742 0 0 0
4181 279 11 1 -594.9735596604264 1188.5951705766959 -1121.0110334078129 0 0 0
5374 359 4 0 -205.96155668790354 1194.8426908820263 -1065.6472644886846 0 0 0
5626 376 1 0 -1012.2690395051808 1213.7979589330173 -1087.1258132343853 0 0 0
5640 376 15 0 -720.6939052241287 1220.0054696496582 -1120.15447491503 0 0 0
5639 376 14 -1.5 -652.6505885250127 1210.8412077157545 -1121.9237700375454 0 0 0
4901 327 11 1 -638.7758879808748 1215.837128997937 -1122.8399399655839 0 0 0
4899 327 9 0 -573.073930071599 1237.8122698946274 -1115.4149186679683 0 0 0
4179 279 9 0 -530.3103161744044 1202.5351266412406 -1112.2308074727437 0 0 0
4896 327 6 -0.5 -525.7606026821758 1239.9838125713864 -1095.5698509286474 0 0 0
4185 279 15 0 -491.76992360170584 1202.0300037293036 -1056.059015152852 0 0 0
4176 279 6 -0.5 -483.9262646108237 1218.75439208809 -1124.4739125702292 0 0 0
4904 327 14 -1.5 -481.8860717427462 1233.2849078549884 -1100.5234561680215 0 0 0
5381 359 11 1 -446.47239885254413 1260.2073306310824 -1120.9496388560447 0 0 0
5385 359 15 0 -323.6599764735613 1253.1631960623329 -1084.1662393902916 0 0 0
5372 359 2 0 -266.2000923188789 1202.128849329015 -1070.581181249593 0 0 0
4363 291 13 -0.5 -2255.8442517505573 1304.6588782822914 -1123.5782864707405 0 0 0
4243 283 13 -0.5 -2246.9065963826893 1349.4887602207052 -1094.279570136294 0 0 0
4905 327 15 0 -561.2011551037633 1289.4770442691095 -1084.9607886700005 0 0 0
4892 327 2 0 -541.8332555504827 1337.8252476590885 -1054.4460171506028 0 0 0
4267 285 7 2 -483.90602367707027 1283.0233140823802 -1117.2853758820752 0 0 0
4271 285 11 1 -433.88432003010394 1299.395691235386 -1105.4101388869847 0 0 0
5379 359 9 0 -387.5270943662388 1281.8435866685986 -1111.5104473008585 0 0 0
4269 285 9 0 -378.2841403309742 1322.5318600769226 -1077.0826470876566 0 0 0
5376 359 6 -0.5 -344.131798843079 1317.0550135356627 -1120.829065321492 0 0 0
4266 285 6 -0.5 -325.83048638231935 1329.2331807598403 -1065.8524725701761 0 0 0
5384 359 14 -1.5 -310.7082945086268 1341.2026037089702 -1105.9991322097424 0 0 0
4275 285 15 0 -339.0551528175666 1282.7451701267291 -1052.694342406718 0 0 0
2176 146 1 0 -903.0611476840568 1416.8150919619654 -1052.7288525113456 0 0 0
3751 251 1 0 -416.1789677252529 -940.3602815709401 -1000.6044005159642 0 0 0