LAMMPS data file via write_data, version 27 Jun 2024, timestep = 21760000, units = real

5730 atoms
15 atom types
5603 bonds
16 bond types
5730 angles
15 angle types

-3000 3000 xlo xhi
-1500 1500 ylo yhi
-1500 1500 zlo zhi

Masses

1 241.19
2 73.54000000000001
3 330.71
4 235.16
5 68.06999999999999
6 353.53
7 223.38
8 41.1
9 216.91
10 155.15
11 147.32
12 264.65
13 300.8
14 326.05
15 85.20999999999999

Pair Coeffs # lj/cut/coul/debye/gpu

1 0.71637 40.7505
2 0.665709 48.1397
3 1.15033 39.2216
4 0.726774 43.8077
5 0.514724 53.3428
6 1.17127 41.7847
7 1.2256 38.5601
8 0.675431 54.5696
9 1.26117 43.78
10 0.939007 42.5209
11 0.960667 41.1825
12 1.30988 48.0761
13 1.36645 37.7114
14 1.35529 39.2179
15 0.592003 47.2602

Bond Coeffs # harmonic

1 0.003 59.228
2 0.008 56.48
3 0.001 69.324
4 3.207 42.88
5 0.11 49.807
6 0.002 74.968
7 0.001 91.635
8 0.145 54.383
9 2.709 44.406
10 1.71 61.679
11 1.625 54.051
12 0.207 66.185
13 0.002 64.76
14 0.079 63.886
15 0.2 40
16 0.2 40

Angle Coeffs # harmonic

1 11.427 158.273
2 50.464 132.042
3 8.207 156.514
4 92.705 149.394
5 100 174.44
6 3.15 145.53
7 48.938 159.031
8 17.401 129.945
9 15.735 56.441
10 60 172.254
11 60.285 168.396
12 11.83 99.091
13 150 107.995
14 27.746 149.925
15 7.483 160.775

Atoms # full

2412 161 12 0 -2281.2363858452336 -1431.9606241187378 -1481.3684155614192 0 0 0
3769 252 4 0 -1488.118270279609 -1338.7496533451654 -1443.894508074442 0 0 0
2561 171 11 1 -1133.380184687115 -1313.7010277733898 -1483.7967323942164 0 0 1
2557 171 7 2 -1168.9422027738096 -1294.6943319914399 -1447.5543485783935 0 0 1
2558 171 8 0 -1345.8216887854335 -1271.0393170043196 -1453.8060339984036 0 0 1
1084 73 4 0 -2420.9652479402325 -1147.9675312961501 -1470.1711646553008 0 0 1
1804 121 4 0 -2652.1427299777547 -771.3501192745424 -1436.4040180098368 0 0 0
1802 121 2 0 -2672.908095305469 -715.3513056841447 -1432.2681674889673 0 0 0
1815 121 15 0 -2670.276206028087 -631.4643819451511 -1442.1593505677586 0 0 0
5702 381 2 0 -400.98889049680605 -565.9875456634187 -1440.521432386477 0 0 1
973 65 13 -0.5 -2728.6534542105337 -380.7337038086765 -1451.1077325977813 0 0 0
963 65 3 -1.5 -2709.7670152410465 -349.57261674733 -1428.3357365428851 0 0 0
2586 173 6 -0.5 -1613.4660522274598 -286.9642908829839 -1449.381844229246 0 0 1
2589 173 9 0 -1582.8412325545141 -252.10348059299196 -1479.8904713145812 0 0 1
1063 71 13 -0.5 -719.5962710777096 294.66682143408883 -1456.5240323081478 0 0 0
1053 71 3 -1.5 -685.660358207899 308.06905985953784 -1434.1489669250318 0 0 0
1062 71 12 0 -639.3521229231878 322.780311888179 -1441.6165548698918 0 0 0
1060 71 10 1 -594.6418754119829 369.31686981425185 -1429.6088741407461 0 0 0
1411 95 1 0 -1590.715846804669 456.85898568347454 -1490.431195555421 0 0 0
1418 95 8 0 -1623.5986331571926 480.5856278909915 -1435.2800997002885 0 0 0
4927 329 7 2 -1850.7798459852736 598.4957188417026 -1431.5881281837137 0 0 0
4930 329 10 1 -1840.5640377253767 600.7093110061533 -1492.4638503779936 0 0 0
1412 95 2 0 -1749.1862580937266 855.2205946959615 -1435.2029845553343 0 0 0
1414 95 4 0 -1725.642823900475 906.3790829108312 -1454.9915981250906 0 0 0
4477 299 7 2 -2040.522508061985 1095.8750796547195 -1445.8450047779068 0 0 0
4364 291 14 -1.5 -2029.7593551051632 1059.5164648684852 -1435.2992876096926 0 0 0
4356 291 6 -0.5 -2025.7334839752027 1103.1624262324815 -1425.466800993807 0 0 0
4352 291 2 0 -2092.9159831051834 1138.0657880708382 -1479.7408205228328 0 0 0
4365 291 15 0 -2065.664968653051 1138.0086073667715 -1440.1965098144424 0 0 0
4232 283 2 0 -1977.883470600933 1140.0847248640823 -1467.8150141110366 0 0 0
2410 161 10 1 -2278.7243321832607 -1442.4997022555792 -1420.1808499544786 0 0 0
2407 161 7 2 -2264.7356907644944 -1444.8568319546034 -1360.4219663814995 0 0 0
3776 252 11 1 -1744.0412495513062 -1276.1941165573317 -1361.3632368679614 0 0 0
3767 252 2 0 -1526.3592863112628 -1318.3906190906698 -1412.5617119192416 0 0 0
3774 252 9 0 -1687.4166025973623 -1243.0455595402896 -1381.6458024468066 0 0 0
3771 252 6 -0.5 -1650.85307830598 -1204.22146148486 -1378.07569135035 0 0 0
3780 252 15 0 -1603.2805708734998 -1261.8316853022939 -1399.6249614354226 0 0 0
2555 171 5 0 -1309.3574139960615 -1237.7600946188882 -1383.3221326882326 0 0 1
2560 171 10 1 -1207.803269952652 -1267.8441732322492 -1407.2341153711802 0 0 1
2562 171 12 0 -1243.3823892433522 -1247.3671087023354 -1360.779549874987 0 0 1
3779 252 14 -1.5 -1633.2775095566863 -1171.3737394687096 -1353.6379396643267 0 0 0
1814 121 14 -1.5 -2665.850492630381 -686.2480860603379 -1379.0519411277135 0 0 0
1806 121 6 -0.5 -2668.6878366897595 -642.4265713199303 -1382.4674042066883 0 0 0
1809 121 9 0 -2646.5029326505255 -593.5920357461249 -1392.1541004648714 0 0 0
1811 121 11 1 -2638.0562449215927 -528.1356487326241 -1389.1922384985287 0 0 0
5704 381 4 0 -407.63708900792943 -555.7319564931429 -1379.1140270179847 0 0 1
1807 121 7 2 -2620.5106365757097 -479.12252796376794 -1373.089550913006 0 0 0
241 17 1 0 -1350.5023834717751 -463.9922337695551 -1396.9494305344504 0 0 0
248 17 8 0 -1301.8221464759758 -480.2728969112997 -1371.0270232424082 0 0 0
972 65 12 0 -2678.2924946124785 -350.3628541119577 -1387.6116449515052 0 0 0
970 65 10 1 -2620.988554965657 -339.47984160888905 -1365.6564308670836 0 0 0
967 65 7 2 -2563.125063343704 -319.5557003347526 -1354.2321331882504 0 0 0
2938 196 13 -0.5 -2603.00414634904 -314.2550516610765 -1350.8135074718532 0 0 0
1801 121 1 0 -2757.159154061738 -235.5584222551983 -1409.1546401703515 0 0 0
1808 121 8 0 -2711.997193068638 -257.1240578857701 -1366.9775346016327 0 0 0
975 65 15 0 -2392.9348499244807 -281.3186097168443 -1354.6939927721264 0 0 0
2929 196 4 0 -2107.7717227844937 -233.9116401880115 -1366.0134515819918 0 0 0
2595 173 15 0 -1618.7021756799913 -237.93129051588187 -1414.2508896416866 0 0 1
2582 173 2 0 -1638.497584634148 -244.16958008446136 -1369.2566441870936 0 0 1
2594 173 14 -1.5 -1648.5502529257076 -293.7852868538323 -1422.2459859429596 0 0 1
964 65 4 0 -2268.0101845446607 -201.31099491666973 -1364.9582717471058 0 0 0
1057 71 7 2 -560.8278224713914 418.7474815317833 -1412.2054843024096 0 0 0
1723 115 13 -0.5 -585.5269963269976 438.88776656221796 -1386.0836598195897 0 0 0
1061 71 11 1 -533.6315190914357 464.84985424941226 -1399.8214252640405 0 0 0
1059 71 9 0 -489.62114183941316 507.6887736067819 -1372.5896125854404 0 0 0
1065 71 15 0 -433.7125134869017 485.8003507455148 -1378.2120969387943 0 0 0
1052 71 2 0 -400.31594901343624 460.82149769351287 -1359.0173798308592 0 0 0
1054 71 4 0 -348.9206669691281 463.5586618927801 -1354.0205863957285 0 0 0
1719 115 9 0 -298.0458358993265 518.2055197826287 -1360.909152868834 0 0 0
1716 115 6 -0.5 -244.44914979860246 516.2361279239171 -1381.734081347189 0 0 0
4931 329 11 1 -1867.7925289141924 589.1301237266538 -1381.7907039499103 0 0 0
1415 95 5 0 -1623.6930902301679 545.6921928743378 -1387.3700335366282 0 0 0
1056 71 6 -0.5 -443.62780418916464 530.8828567433839 -1360.102869232926 0 0 0
1064 71 14 -1.5 -399.64782435499063 533.969224715341 -1356.0770584698053 0 0 0
1724 115 14 -1.5 -216.50136795204955 529.6833909721836 -1413.0658707867608 0 0 0
1425 95 15 0 -1782.5401490660097 795.61025680266 -1381.4669016267824 0 0 0
4081 273 1 0 -1090.490509474041 802.3477173220418 -1354.442675703192 0 0 0
1424 95 14 -1.5 -1824.1331111759007 847.9292353743111 -1376.9302555037543 0 0 0
4244 283 14 -1.5 -2053.2894376667687 1080.606255283508 -1394.8442520568183 0 0 0
4236 283 6 -0.5 -2035.2625565280025 1106.148107746996 -1363.3309574714904 0 0 0
4481 299 11 1 -2014.7738152282288 1095.8368561114391 -1398.9122708881011 0 0 0
4359 291 9 0 -2038.7771161346557 1145.677310278506 -1390.4955918505693 0 0 0
4361 291 11 1 -2039.0844614721864 1199.5553914530767 -1353.345649593167 0 0 0
4245 283 15 0 -1990.6836450650305 1140.5271045327067 -1398.0749733393147 0 0 0
2411 161 11 1 -2255.6720158294343 -1451.4075205574618 -1307.2569290645479 0 0 0
3778 252 13 -0.5 -1970.1859308635721 -1360.7553065990542 -1333.1146131639196 0 0 0
3617 242 2 0 -94.99099075883632 -1397.3544637693835 -1303.6056751593824 0 0 0
3619 242 4 0 -57.89553937088324 -1385.3181088527183 -1347.0953225238322 0 0 0
3768 252 3 -1.5 -1952.9023349493186 -1325.2840317255307 -1316.0584673887238 0 0 0
3777 252 12 0 -1914.333895632725 -1300.890519645138 -1323.8528565398103 0 0 0
3775 252 10 1 -1854.3957135405062 -1293.7513048281469 -1336.6488386718468 0 0 0
3772 252 7 2 -1794.307570961439 -1284.3352880784118 -1344.4974802905335 0 0 0
3616 242 1 0 -430.2647014931713 -1294.4870848403027 -1302.3209312905024 0 0 0
2553 171 3 -1.5 -1248.978481786544 -1206.508491822601 -1329.209851407276 0 0 1
3773 252 8 0 -1958.1954396177418 -1134.97550245657 -1300.456592869534 0 0 0
3770 252 5 0 -1963.4635266142307 -1193.862429882044 -1310.9080002752182 0 0 0
2563 171 13 -0.5 -1279.2816570215143 -1176.4302475058284 -1331.294466738904 0 0 1
1607 108 2 0 -1092.5030376225368 -576.1315622282056 -1286.1804144208934 0 0 0
1609 108 4 0 -1046.485960638012 -573.0086899691294 -1307.7369572540388 0 0 0
5533 369 13 -0.5 -2766.724088677735 -508.2578580857494 -1307.8239487566084 0 0 0
5523 369 3 -1.5 -2738.564954865675 -479.5547668367638 -1293.3953405011982 0 0 0
2926 196 1 0 -2437.432408175135 -498.77481802857454 -1298.3069533343516 0 0 0
245 17 5 0 -1256.6043126944548 -486.3250248378941 -1323.635880251471 0 0 0
1810 121 10 1 -2595.708590080116 -428.62889793267016 -1346.1406459512689 0 0 0
2930 196 5 0 -2511.973793291619 -398.7889930501232 -1277.6932770249537 0 0 0
965 65 5 0 -2761.2320326312615 -301.74707344871473 -1304.3531253752199 0 0 0
1805 121 5 0 -2648.616451586402 -310.7682020891898 -1333.6415387665631 0 0 0
1812 121 12 0 -2571.867200149911 -374.47794475028655 -1332.4311715470808 0 0 0
2928 196 3 -1.5 -2582.020436634582 -322.02358504866 -1314.13548161888 0 0 0
1813 121 13 -0.5 -2523.7974287950933 -306.92355926784927 -1349.5232562053013 0 0 0
1803 121 3 -1.5 -2533.1684185063523 -345.0583583766397 -1332.3674785434325 0 0 0
2937 196 12 0 -2533.238008946547 -314.86125563382757 -1297.127730410398 0 0 0
968 65 8 0 -2839.1090622785855 -277.76575486902857 -1286.2502501700312 0 0 0
971 65 11 1 -2514.5990144141774 -296.34424254084377 -1345.2240276807624 0 0 0
2935 196 10 1 -2477.701517982651 -282.6577777275822 -1293.7398934425346 0 0 0
969 65 9 0 -2449.6810996909107 -282.2925372537597 -1330.8950186626373 0 0 0
2932 196 7 2 -2420.68028932575 -259.73695053908193 -1289.049952858282 0 0 0
966 65 6 -0.5 -2412.739411622752 -254.7542560003701 -1308.1842757738164 0 0 0
2936 196 11 1 -2372.9749016178193 -235.38290178204946 -1285.2258296265918 0 0 0
962 65 2 0 -2304.7775538558367 -231.64230520683645 -1338.9875543388068 0 0 0
2940 196 15 0 -2231.773381667541 -230.07548981496268 -1303.1446403605783 0 0 0
2927 196 2 0 -2156.3198542871723 -244.8111307117636 -1326.5244270298185 0 0 0
2584 173 4 0 -1671.135583537304 -228.0571356018153 -1323.3114822595653 0 0 1
2934 196 9 0 -2314.180714386728 -206.83629495034182 -1296.6331370108867 0 0 0
2931 196 6 -0.5 -2278.9490150205256 -174.36991541054402 -1321.4859354129687 0 0 0
2939 196 14 -1.5 -2264.8449189924686 -133.5569377384323 -1331.1621641748854 0 0 0
658 44 13 -0.5 -237.85844191569197 -144.06444488825787 -1317.1637201160738 0 0 0
653 44 8 0 -85.34918594745012 -28.792103413028418 -1320.8752892191094 0 0 0
650 44 5 0 -132.47299016885484 -66.92202652923054 -1285.3938967994802 0 0 0
646 44 1 0 -30.137244840420557 10.197503154249867 -1300.970833422152 0 0 0
1713 115 3 -1.5 -574.9684087035079 453.64199683673866 -1346.839791070711 0 0 0
1722 115 12 0 -532.5283102456777 466.02689785188744 -1327.9829242636933 0 0 0
1720 115 10 1 -473.577233604525 490.43422351729265 -1335.9794616673485 0 0 0
1717 115 7 2 -412.9523551119078 501.4579810164461 -1337.8303213035747 0 0 0
1721 115 11 1 -359.56387481865585 503.5052120396341 -1346.2204113345465 0 0 0
4929 329 9 0 -1888.5365805575302 597.4647054130673 -1317.9041552438791 0 0 0
1422 95 12 0 -1648.271651845452 574.9264632914495 -1309.7489088126713 0 0 0
1413 95 3 -1.5 -1643.011643211285 534.025873998654 -1282.1651220923893 0 0 0
1725 115 15 0 -239.68545530510806 543.0250193814126 -1314.3598321557774 0 0 0
4935 329 15 0 -1933.9714031011827 622.1606132707633 -1302.207416091496 0 0 0
1420 95 10 1 -1686.6169178057635 626.2075033773855 -1315.7945967151902 0 0 0
4924 329 4 0 -2039.7546696839984 712.4968954069138 -1287.8585721602417 0 0 0
4922 329 2 0 -1992.3256707470614 687.1433606374791 -1297.1860174059682 0 0 0
1421 95 11 1 -1742.1642710339013 726.9821356922542 -1317.7870803962592 0 0 0
1417 95 7 2 -1717.3000223217978 679.3066007367528 -1313.753801234697 0 0 0
1416 95 6 -0.5 -1806.2430373051945 820.436639002359 -1346.5628717994189 0 0 0
1419 95 9 0 -1786.725662292871 769.5409415854625 -1336.319609964834 0 0 0
4088 273 8 0 -1052.515948136474 822.0605032357696 -1328.4140991819006 0 0 0
4472 299 2 0 -1893.7895918542513 1033.835160618201 -1283.603703041743 0 0 0
4474 299 4 0 -1858.2432936846155 999.4859879147014 -1296.9827573047573 0 0 0
4654 311 4 0 -885.0676501047528 1006.2400874067818 -1281.7635681652932 0 0 0
4479 299 9 0 -1998.8112125334426 1093.1897870528924 -1334.696693097645 0 0 0
4476 299 6 -0.5 -1993.587262722556 1100.9670274588993 -1282.4885970697383 0 0 0
4485 299 15 0 -1943.986834148227 1083.4030922283325 -1293.244629333124 0 0 0
4239 283 9 0 -2027.7583033052797 1155.2453774377832 -1342.4977408309105 0 0 0
4241 283 11 1 -2037.5925858961798 1210.782094849533 -1307.3488904070161 0 0 0
4357 291 7 2 -2042.9496387429265 1247.1761729454506 -1327.9713177797485 0 0 0
4237 283 7 2 -2043.0395908937062 1261.0095902608139 -1288.267953230659 0 0 0
4360 291 10 1 -2051.365042881583 1301.765957775885 -1301.3067569773023 0 0 0
4362 291 12 0 -2067.550389389247 1361.2834810805396 -1281.7125972199221 0 0 0
2409 161 9 0 -2252.3029469764842 -1465.0531556399444 -1243.2541571407032 0 0 0
2415 161 15 0 -2206.65917386792 -1464.9758738344676 -1210.082943759717 0 0 0
3630 242 15 0 -120.55037288617667 -1379.051170104871 -1218.9683040411778 0 0 0
3623 242 8 0 -446.4878858728168 -1297.0722769126205 -1241.884158309781 0 0 0
3766 252 1 0 -1942.0626032346725 -1112.1435644694807 -1235.5234339864421 0 0 0
2656 178 1 0 -214.5558974622708 -1025.533383009372 -1238.7504660435427 0 0 0
2803 187 13 -0.5 -1.0378400208316039 -729.7590071460822 -1248.7432417608388 0 0 0
253 17 13 -0.5 -1293.6135826940001 -562.1872109913172 -1221.9936351267434 0 0 0
243 17 3 -1.5 -1265.5186808685587 -532.4876528130059 -1208.7433137738878 0 0 0
1614 108 9 0 -1195.7114871183624 -538.1141636302523 -1213.9168387531754 0 0 0
1620 108 15 0 -1146.7307382473252 -554.5775331353351 -1264.898468976791 0 0 0
5532 369 12 0 -2724.523703959962 -468.1909474318029 -1244.6853370564313 0 0 0
2933 196 8 0 -2458.3970987545385 -465.1410198683178 -1269.7870463953552 0 0 0
252 17 12 0 -1227.682366274694 -505.6559367330696 -1230.7406815393972 0 0 0
1611 108 6 -0.5 -1159.0598516104133 -499.8507832538384 -1219.7886285954714 0 0 0
250 17 10 1 -1164.0989061823104 -502.44158002475206 -1229.9756649421438 0 0 0
1619 108 14 -1.5 -1127.7752930249424 -483.6354935619421 -1246.3349334143281 0 0 0
247 17 7 2 -1104.0419473389175 -496.34015050250196 -1217.9438067123533 0 0 0
251 17 11 1 -1053.3354502848536 -489.93017046731626 -1200.3803193220429 0 0 0
916 62 1 0 -1015.9470700188078 -515.7431168756008 -1237.1670400966218 0 0 0
923 62 8 0 -964.2394042137889 -502.7129690724302 -1229.561520384213 0 0 0
5530 369 10 1 -2684.752638156323 -436.570269092236 -1205.919263622444 0 0 0
1613 108 8 0 -1505.9083007634104 -441.94061501540875 -1215.7749185040063 0 0 0
961 65 1 0 -2875.8296010651466 -267.6663461409633 -1246.8112605763824 0 0 0
974 65 14 -1.5 -2389.5895365576034 -246.71870791330605 -1271.3242992508374 0 0 0
3128 209 8 0 -1238.504835829686 -156.8635865544302 -1218.136704804435 0 0 0
3121 209 1 0 -1211.220019259873 -156.3470472350292 -1270.314436480043 0 0 0
657 44 12 0 -194.58226643778943 -160.94061924387725 -1248.4834858474262 0 0 0
648 44 3 -1.5 -230.51100632373527 -138.5608883702825 -1274.937008855681 0 0 0
1718 115 8 0 -569.229136514199 365.7096271752714 -1213.6069288295278 0 0 0
1715 115 5 0 -526.4909314957957 403.48453633225006 -1263.3837898023146 0 0 0
1423 95 13 -0.5 -1656.118220087488 526.5307726977542 -1242.106940622118 0 0 0
1712 115 2 0 -172.44676869903057 557.8336511088021 -1256.845048471749 0 0 0
1714 115 4 0 -141.048295312164 582.9540716170084 -1210.4331609353171 0 0 0
4934 329 14 -1.5 -1900.790654318403 625.8536837120865 -1228.3218294851515 0 0 0
4926 329 6 -0.5 -1899.7287522014083 624.1365881993212 -1272.2740473458414 0 0 0
4066 272 1 0 -2640.4763836342127 804.1185362125074 -1215.4483892386215 0 0 0
4663 311 13 -0.5 -1302.3040314160178 814.4117518054707 -1253.659529931029 0 0 0
4653 311 3 -1.5 -1264.068802521071 828.8906072248016 -1240.269478306923 0 0 0
4662 311 12 0 -1246.980692421314 874.980094198043 -1228.8959128389095 0 0 0
4085 273 5 0 -1041.1925362573118 870.496453737197 -1272.7157859140257 0 0 0
4660 311 10 1 -1196.7517868347604 905.2754219189467 -1208.2872532995896 0 0 0
4093 273 13 -0.5 -1141.8592290738598 969.1882230436046 -1219.0868192371756 0 0 0
4083 273 3 -1.5 -1108.7233043713825 945.5002923862429 -1207.4898327333253 0 0 0
4092 273 12 0 -1060.7328529630709 952.2876058053665 -1214.3271184494413 0 0 0
4665 311 15 0 -985.4631787306646 1015.1239501776586 -1210.3882177757498 0 0 0
4652 311 2 0 -934.6534003505748 1017.383493388982 -1253.6381745104466 0 0 0
4484 299 14 -1.5 -1988.569281621149 1082.7057877558032 -1243.1306164962284 0 0 0
4240 283 10 1 -2053.1969195436764 1312.0070075963918 -1256.5763946968598 0 0 0
4894 327 4 0 -545.7060088041281 1335.9747653646043 -1220.6522819672632 0 0 0
4351 291 1 0 -2287.820885833583 1379.2143107245859 -1201.9310205209367 0 0 0
4355 291 5 0 -2161.618835699403 1350.7884245653659 -1231.3637218352571 0 0 0
4353 291 3 -1.5 -2065.659048996821 1403.0423545655149 -1259.0263863002224 0 0 0
4363 291 13 -0.5 -2073.241611467107 1412.1997281264053 -1218.0569647189288 0 0 0
4242 283 12 0 -2046.7975185838218 1367.16818077542 -1222.2094030586754 0 0 0
2406 161 6 -0.5 -2257.149170507518 -1496.8483695816744 -1198.6923132110267 0 0 0
2402 161 2 0 -2150.2476059692567 -1445.8115639595123 -1160.9534476306653 0 0 0
3629 242 14 -1.5 -101.57134132416125 -1435.9742442607997 -1184.6087296034343 0 0 0
3624 242 9 0 -177.0079080762257 -1377.5553610559543 -1164.9138665723426 0 0 0
3621 242 6 -0.5 -139.1427911069786 -1418.6184504511675 -1169.3728742318706 0 0 0
3622 242 7 2 -258.1354185427424 -1296.2824835108047 -1128.1621716602333 0 0 0
3626 242 11 1 -222.0215205809925 -1336.0909101509658 -1139.1833591314094 0 0 0
3620 242 5 0 -410.98983326882905 -1268.5741580624626 -1169.4039053030594 0 0 0
2663 178 8 0 -217.2401248078705 -990.4598425210019 -1186.48533260138 0 0 0
2660 178 5 0 -187.949860931178 -925.8056579511189 -1141.2959169878732 0 0 0
2662 178 7 2 -55.05857835674557 -778.1559537279292 -1140.9397896469297 0 0 0
2666 178 11 1 -16.35880963285111 -755.8361118368207 -1170.9294332375966 0 0 0
5521 369 1 0 -2759.014903443018 -679.6195188631474 -1150.278286253877 0 0 0
5528 369 8 0 -2779.045273973149 -614.6845946762113 -1135.7434240841299 0 0 0
1608 108 3 -1.5 -1466.8708786778134 -641.7255031474589 -1198.125157065125 0 0 0
1618 108 13 -0.5 -1494.0401032743341 -660.6587815717619 -1170.7648643581147 0 0 0
1617 108 12 0 -1429.2130325591668 -610.2173318725617 -1193.1796132991487 0 0 0
1615 108 10 1 -1363.130786835182 -602.8798951430412 -1185.4760746951354 0 0 0
5525 369 5 0 -2783.895087128051 -551.923103097922 -1182.966706451784 0 0 0
1612 108 7 2 -1304.5840470879923 -585.5029746590628 -1191.7337968401312 0 0 0
1616 108 11 1 -1254.4545787488266 -566.6490722329311 -1199.0254765437214 0 0 0
1610 108 5 0 -1484.092832773427 -512.1050739537461 -1178.0303137275978 0 0 0
249 17 9 0 -997.0242891182386 -476.45212388676225 -1166.6313591223936 0 0 0
920 62 5 0 -936.5593157402461 -453.82740320431066 -1192.270057743059 0 0 0
246 17 6 -0.5 -961.1336512528688 -450.31921873350825 -1134.5170717057008 0 0 0
5527 369 7 2 -2658.865864961429 -402.08704219852734 -1162.5064157594234 0 0 0
1606 108 1 0 -1482.133635565985 -391.96095754067613 -1191.945689880595 0 0 0
254 17 14 -1.5 -922.0859252926634 -430.3571105108592 -1132.8789062468124 0 0 0
655 44 10 1 -166.01366342246993 -174.61592662906287 -1191.8353356397238 0 0 0
652 44 7 2 -139.5101834012548 -178.24068251399075 -1136.1168903451382 0 0 0
3125 209 5 0 -1278.1377618996341 -111.9286366069721 -1161.2910499504333 0 0 0
5057 338 2 0 -777.7945694923262 -145.05021302042016 -1135.1698844478772 0 0 0
5059 338 4 0 -774.0826525968033 -121.75097526751975 -1197.3149445466534 0 0 0
5063 338 8 0 -1094.8186851331536 38.80043349023051 -1137.2078125631076 0 0 0
5056 338 1 0 -1130.83576471581 80.96216265955799 -1170.7462372632222 0 0 0
1711 115 1 0 -569.8631748472939 341.8101218008826 -1162.3810085140192 0 0 0
4681 313 1 0 -2765.5036442780715 648.7466598836686 -1177.4010772490572 0 0 0
4073 272 8 0 -2675.310089610667 823.9927513467618 -1166.9375034860877 0 0 0
5173 345 13 -0.5 -2051.725566232856 813.5362210351886 -1179.1050196196643 0 0 0
5163 345 3 -1.5 -2068.151439821942 793.5960491614211 -1145.1144270745228 0 0 0
4655 311 5 0 -1293.3134394250671 866.7031507449119 -1178.103024009964 0 0 0
4651 311 1 0 -1360.0135981474687 944.0272147474894 -1125.5752600674666 0 0 0
4657 311 7 2 -1146.215315819633 938.2995663303025 -1193.6010370299332 0 0 0
4661 311 11 1 -1099.367796175456 963.2073246144244 -1185.727074094094 0 0 0
4090 273 10 1 -1005.4516519066818 967.2400573452235 -1193.0750142249549 0 0 0
4659 311 9 0 -1044.2254978423507 997.6114269300496 -1168.682309020259 0 0 0
4656 311 6 -0.5 -995.6435897620236 1011.103578029597 -1151.4162657113327 0 0 0
5638 376 13 -0.5 -990.2500220594607 1006.4590077660804 -1166.9334451509033 0 0 0
4087 273 7 2 -955.5032251918748 988.9742568387816 -1163.107567828618 0 0 0
4091 273 11 1 -910.4639791288411 1008.8407345306891 -1140.96013907089 0 0 0
5628 376 3 -1.5 -957.3570659588135 1006.6102556853218 -1139.4427583151733 0 0 0
4664 311 14 -1.5 -960.6898395421763 998.668304790973 -1127.3368977832147 0 0 0
4173 279 3 -1.5 -825.671314535139 1124.6187563379804 -1133.9489654288084 0 0 0
4095 273 15 0 -800.8985930955492 1055.140296567098 -1126.281476978829 0 0 0
4082 273 2 0 -758.0707371839443 1079.7786355388798 -1146.1770990065127 0 0 0
4084 273 4 0 -713.3087069786588 1119.7194931831746 -1168.4225601713804 0 0 0
4182 279 12 0 -781.4184176816523 1142.3410759121148 -1150.9671101083043 0 0 0
4180 279 10 1 -721.8910553062899 1148.5837774217584 -1133.0204837012604 0 0 0
4264 285 4 0 -194.89327674761324 1156.7961973259673 -1161.6711562985754 0 0 0
4175 279 5 0 -827.5062247435462 1239.077702168594 -1158.780904131489 0 0 0
5382 359 12 0 -615.9338284193813 1239.9262093944403 -1125.8956339530746 0 0 0
4184 279 14 -1.5 -495.4636604959537 1273.039302718706 -1137.271778051451 0 0 0
5385 359 15 0 -333.0291953189277 1241.599815174414 -1146.9202015769777 0 0 0
5372 359 2 0 -308.79140963057444 1239.543041422937 -1171.3570771266825 0 0 0
5374 359 4 0 -253.88596119420015 1211.151158580361 -1187.015568555791 0 0 0
4262 285 2 0 -221.1345303919834 1215.83117294659 -1148.2552454671588 0 0 0
4178 279 8 0 -834.9856081160646 1280.393237045895 -1186.7480386824802 0 0 0
4898 327 8 0 -847.6331584167857 1297.0807056751937 -1131.0834278759621 0 0 0
4891 327 1 0 -850.4282649080166 1340.1174183166022 -1171.1861451922566 0 0 0
4171 279 1 0 -800.931829354177 1331.0754997502654 -1190.7930003948259 0 0 0
4261 285 1 0 -745.668155474549 1331.4505138535017 -1184.3224164943979 0 0 0
4268 285 8 0 -687.4125207937459 1345.3101814313682 -1184.0435244844439 0 0 0
4265 285 5 0 -632.27440627657 1318.1594695545934 -1138.373491727516 0 0 0
4905 327 15 0 -535.1451216935877 1294.4407248702273 -1130.968093993108 0 0 0
4892 327 2 0 -530.3191011531823 1316.3197756537936 -1174.5847053000002 0 0 0
5376 359 6 -0.5 -326.6815306365645 1286.8052894408272 -1129.8121846526476 0 0 0
5384 359 14 -1.5 -304.55840268833157 1320.9538814476816 -1148.2588420691877 0 0 0
4274 285 14 -1.5 -263.20236013441917 1336.5247433733573 -1131.976197454549 0 0 0
4358 291 8 0 -2224.991261683853 1401.0594632235623 -1190.0322112556519 0 0 0
4231 283 1 0 -2243.1391129164213 1394.2647938374794 -1146.2843059982813 0 0 0
4238 283 8 0 -2188.3984524264515 1405.197775836932 -1147.3404446529437 0 0 0
4235 283 5 0 -2124.5036201864173 1386.5838369481316 -1190.7414251415619 0 0 0
4243 283 13 -0.5 -2045.7002514688415 1414.8660151889894 -1151.7880295678453 0 0 0
4233 283 3 -1.5 -2029.0317371464564 1392.3611426928287 -1184.5631270107647 0 0 0
2414 161 14 -1.5 -2282.9031181077544 1479.070498409169 -1171.7844483900933 0 -1 0
2404 161 4 0 -2128.817940672601 -1438.100291803947 -1120.0717142176188 0 0 0
3618 242 3 -1.5 -398.5824663613654 -1209.5743915254243 -1084.943502944676 0 0 0
3628 242 13 -0.5 -435.7677969780799 -1224.5593988153244 -1070.7937344347395 0 0 0
3627 242 12 0 -360.0519447405879 -1229.4942526459663 -1114.0977794371395 0 0 0
3625 242 10 1 -304.56241715658587 -1256.648719997406 -1118.5789796410081 0 0 0
2667 178 12 0 -154.173481804342 -824.7804688027246 -1079.5092190857708 0 0 0
2665 178 10 1 -105.66502371239126 -797.6165605015294 -1113.3660267637697 0 0 0
255 17 15 0 -977.2729307028073 -503.2890367679737 -1106.7554407224195 0 0 0
918 62 3 -1.5 -935.5734203203671 -454.53997728437764 -1084.3052973073652 0 0 0
928 62 13 -0.5 -975.7551513712697 -440.0180700277556 -1076.8752526644978 0 0 0
927 62 12 0 -890.8611532773751 -439.58650547664155 -1102.7245776321342 0 0 0
925 62 10 1 -841.1565896874855 -402.5692425071911 -1109.7540066827132 0 0 0
5531 369 11 1 -2648.4859727110443 -367.73354113807216 -1121.5076003628085 0 0 0
5529 369 9 0 -2630.0121786456084 -321.60891627438247 -1076.9619994089192 0 0 0
926 62 11 1 -754.2235738902506 -328.68527344383654 -1121.5931963090202 0 0 0
3388 226 13 -0.5 -815.5245254165872 -333.21328102537774 -1109.782159209309 0 0 0
922 62 7 2 -795.0605158134802 -363.3822381778519 -1119.2179052636602 0 0 0
3378 226 3 -1.5 -774.7610009268624 -322.0758174285608 -1115.9488663587738 0 0 0
3379 226 4 0 -374.56668029767 -357.47684419517043 -1064.7997870092938 0 0 0
3380 226 5 0 -804.7676558383598 -262.7455259790347 -1055.4432576339987 0 0 0
3387 226 12 0 -751.3097328665297 -281.42223654988584 -1101.6851987840296 0 0 0
924 62 9 0 -700.6385214910064 -289.40771303189075 -1117.3192352419146 0 0 0
3385 226 10 1 -700.0739072466438 -261.71077335812737 -1077.742067855928 0 0 0
930 62 15 0 -645.6400512757937 -294.5799607222129 -1071.9669877207366 0 0 0
921 62 6 -0.5 -667.5112621411888 -246.63738270348725 -1104.9259578692113 0 0 0
3382 226 7 2 -645.6691543912676 -249.6855245996909 -1052.0668791356472 0 0 0
5070 338 15 0 -815.3629055175463 -162.96080466804727 -1070.328596496145 0 0 0
929 62 14 -1.5 -654.0937897045548 -217.83258204528616 -1074.5144895648114 0 0 0
656 44 11 1 -122.39641937093042 -181.76075382197115 -1084.8691868458802 0 0 0
3132 209 12 0 -1295.9349833331864 -98.03872257149278 -1050.3809149270576 0 0 0
5060 338 5 0 -1091.5570190367885 -40.34159755714802 -1074.224238426738 0 0 0
1291 87 1 0 -1122.46664428805 269.22220854778465 -1053.435743991497 0 0 0
3024 202 9 0 -460.0200959606221 411.36462217612814 -1061.352983448899 0 0 0
3021 202 6 -0.5 -417.30721246778387 429.41957950735315 -1090.3302536951894 0 0 0
3029 202 14 -1.5 -374.4787582971432 429.38193690758897 -1099.9789214115524 0 0 0
4688 313 8 0 -2743.5033265784086 653.4867275642991 -1117.3475826755152 0 0 0
5172 345 12 0 -2070.076653631741 800.0644992930646 -1094.9338233655897 0 0 0
5165 345 5 0 -1983.5616185659703 769.9159296616826 -1083.4741970536547 0 0 0
4070 272 5 0 -2642.084412618656 856.9994455706131 -1104.8599534793393 0 0 0
4658 311 8 0 -1332.814152200192 901.5065286009752 -1112.5188554257868 0 0 0
2188 146 13 -0.5 -983.1202432563675 1035.4024943251884 -1107.6757209068905 0 0 0
5630 376 5 0 -978.2583296133832 1044.7485371734497 -1056.1714404501863 0 0 0
2178 146 3 -1.5 -951.8408190001646 1017.0700562659584 -1084.5106060380567 0 0 0
5637 376 12 0 -936.6455924259467 1041.0075945500018 -1115.263757622229 0 0 0
4089 273 9 0 -861.8765094498606 1044.4097153931762 -1113.4340443539274 0 0 0
4183 279 13 -0.5 -835.681089984657 1086.3890379642314 -1117.4725370062572 0 0 0
5635 376 10 1 -890.1204628975768 1086.7908183778566 -1110.453134873042 0 0 0
2180 146 5 0 -865.368423532907 1071.132423117369 -1067.8837438824578 0 0 0
4086 273 6 -0.5 -836.9337686506187 1091.0887197366324 -1109.0778025831091 0 0 0
5632 376 7 2 -839.3769164033 1120.8087428799504 -1099.767678940174 0 0 0
4903 327 13 -0.5 -827.8367776596917 1082.7743755631877 -1103.9683564783982 0 0 0
4893 327 3 -1.5 -794.0829328399316 1102.2316165654256 -1120.9341667925346 0 0 0
4094 273 14 -1.5 -800.529792789788 1117.7802794526683 -1109.4558453926734 0 0 0
2183 146 8 0 -780.426113986236 1091.1249094969864 -1063.9970632597904 0 0 0
5636 376 11 1 -796.7470559854332 1153.958022628924 -1095.0200216677015 0 0 0
4902 327 12 0 -754.8068996607644 1129.614235775895 -1102.9205408575722 0 0 0
4900 327 10 1 -697.9652746178496 1152.0434830987638 -1094.1267753924867 0 0 0
5634 376 9 0 -734.3994335290018 1179.3067880553328 -1087.4588649972115 0 0 0
5383 359 13 -0.5 -681.2338885768189 1193.195517206102 -1093.882999568938 0 0 0
4177 279 7 2 -665.4823865454018 1165.8101760841162 -1118.6115883718255 0 0 0
4181 279 11 1 -613.5107178746056 1178.2905111037894 -1113.8540183804985 0 0 0
4897 327 7 2 -645.692807917875 1182.3780154328742 -1083.3705810454057 0 0 0
4185 279 15 0 -502.96289867494215 1197.9443066315537 -1094.1953195814554 0 0 0
4895 327 5 0 -815.1813038156497 1201.628543826791 -1111.5316434537806 0 0 0
5631 376 6 -0.5 -689.9395937837156 1206.458338705725 -1099.7161288686773 0 0 0
5373 359 3 -1.5 -656.4352652993084 1209.1898002774326 -1124.1769313111224 0 0 0
5639 376 14 -1.5 -646.9942520042138 1208.08159651694 -1112.8073840909383 0 0 0
4273 285 13 -0.5 -650.9795477933147 1209.8621314671864 -1111.2909783143712 0 0 0