LAMMPS data file via write_data, version 27 Jun 2024, timestep = 27840000, units = real

5730 atoms
15 atom types
5656 bonds
16 bond types
5730 angles
15 angle types

-3000 3000 xlo xhi
-1500 1500 ylo yhi
-1500 1500 zlo zhi

Masses

1 241.19
2 73.54000000000001
3 330.71
4 235.16
5 68.06999999999999
6 353.53
7 223.38
8 41.1
9 216.91
10 155.15
11 147.32
12 264.65
13 300.8
14 326.05
15 85.20999999999999

Pair Coeffs # lj/cut/coul/debye/gpu

1 0.71637 40.7505
2 0.665709 48.1397
3 1.15033 39.2216
4 0.726774 43.8077
5 0.514724 53.3428
6 1.17127 41.7847
7 1.2256 38.5601
8 0.675431 54.5696
9 1.26117 43.78
10 0.939007 42.5209
11 0.960667 41.1825
12 1.30988 48.0761
13 1.36645 37.7114
14 1.35529 39.2179
15 0.592003 47.2602

Bond Coeffs # harmonic

1 0.003 59.228
2 0.008 56.48
3 0.001 69.324
4 3.207 42.88
5 0.11 49.807
6 0.002 74.968
7 0.001 91.635
8 0.145 54.383
9 2.709 44.406
10 1.71 61.679
11 1.625 54.051
12 0.207 66.185
13 0.002 64.76
14 0.079 63.886
15 0.2 40
16 0.2 40

Angle Coeffs # harmonic

1 11.427 158.273
2 50.464 132.042
3 8.207 156.514
4 92.705 149.394
5 100 174.44
6 3.15 145.53
7 48.938 159.031
8 17.401 129.945
9 15.735 56.441
10 60 172.254
11 60.285 168.396
12 11.83 99.091
13 150 107.995
14 27.746 149.925
15 7.483 160.775

Atoms # full

3780 252 15 0 -1615.8213199301717 -1306.1057371589814 -1495.7379059457714 0 0 0
3779 252 14 -1.5 -1547.650712616428 -1282.403883964636 -1465.2840128122625 0 0 0
3766 252 1 0 -2027.0135066663786 -1229.3938584237735 -1463.0354147318283 0 0 0
3773 252 8 0 -1974.7603049808008 -1209.8942654110588 -1463.8061707104794 0 0 0
3776 252 11 1 -1697.932291182784 -1231.5865175580118 -1436.7965283004448 0 0 0
3771 252 6 -0.5 -1581.605160052831 -1257.456806736916 -1451.166434185285 0 0 0
3774 252 9 0 -1634.9184957501172 -1252.7907707841275 -1443.0670088161332 0 0 0
2551 171 1 0 -1410.0058980112656 -1267.5321497295042 -1438.6529350426445 0 0 1
2558 171 8 0 -1345.1015193368219 -1243.5432108138707 -1469.8658418431162 0 0 1
2555 171 5 0 -1261.7424488969114 -1243.3217428731866 -1428.8568959001125 0 0 1
1082 73 2 0 -2532.787258530672 -1023.2296980688217 -1456.8895357564763 0 0 1
5704 381 4 0 -535.956549925551 -732.9959058966508 -1465.2390281379598 0 0 1
5702 381 2 0 -504.7131038506444 -684.7584644556301 -1497.6383282843087 0 0 1
973 65 13 -0.5 -2720.6361757061545 -451.7531062018864 -1437.240779725939 0 0 0
2584 173 4 0 -1717.154843620353 -376.9543275953536 -1426.8113846679157 0 0 1
965 65 5 0 -2732.136563267731 -340.5644942118663 -1490.4187649444384 0 0 0
2926 196 1 0 -2608.6196146962993 -359.24108758695803 -1443.601720105455 0 0 0
2933 196 8 0 -2562.170768039375 -342.64239988970627 -1462.9890266896743 0 0 0
2582 173 2 0 -1671.5098742964947 -370.9425373784297 -1462.274495046136 0 0 1
2595 173 15 0 -1600.0359796098228 -319.36275695548426 -1496.2632562764618 0 0 1
1808 121 8 0 -2786.6368933424806 -245.83708451388682 -1436.565811900721 0 0 0
2930 196 5 0 -2545.833807700664 -269.58554073510436 -1429.8219639268875 0 0 0
2594 173 14 -1.5 -1544.4763458903499 -284.8327882941388 -1431.6484822236534 0 0 1
2586 173 6 -0.5 -1556.4787122044127 -270.891284885902 -1472.4196114873023 0 0 1
1062 71 12 0 -761.2108573907781 208.72851029585334 -1426.8520438946778 0 0 0
4927 329 7 2 -1789.945137121633 447.2338184035398 -1492.3019901930484 0 0 0
4931 329 11 1 -1789.8476879784419 473.0057116493686 -1445.1098507904615 0 0 0
5288 353 8 0 -2698.3612498180482 765.2744347080347 -1479.023302279559 0 0 1
5281 353 1 0 -2680.362869309901 816.6199686259871 -1463.2210761007043 0 0 1
4477 299 7 2 -2055.600176302862 1087.394034556685 -1449.0693155840117 0 0 0
4364 291 14 -1.5 -2024.6861167612426 1075.9817958712267 -1427.9101588843525 0 0 0
4352 291 2 0 -2024.2077273863338 1123.1870112146985 -1475.9595145669573 0 0 0
4365 291 15 0 -2048.3990763391 1135.2451536242436 -1433.741323270035 0 0 0
2401 161 1 0 -2204.1999549294205 1240.5410394278117 -1455.4838722827653 0 -1 0
2408 161 8 0 -2238.4589604473426 1293.3001466853023 -1453.2892116823814 0 -1 0
2405 161 5 0 -2271.695311644753 1356.5033036620785 -1462.712203687231 0 -1 0
2412 161 12 0 -2266.452834613643 1479.7558775780908 -1478.2698944927854 0 -1 0
2410 161 10 1 -2272.4650467164415 -1489.2250580080758 -1424.2384094959175 0 0 0
2407 161 7 2 -2283.7009043865396 -1461.195233431701 -1370.905118464321 0 0 0
2565 171 15 0 -944.3501670607816 -1365.7402945675467 -1361.36671902399 0 0 1
2559 171 9 0 -976.4289716421331 -1295.3205394486429 -1375.8189638307133 0 0 1
2561 171 11 1 -1037.7179101796871 -1275.4400415983657 -1391.1442534821265 0 0 1
3772 252 7 2 -1748.3750120745003 -1219.497776624674 -1421.773559626792 0 0 0
2562 171 12 0 -1200.6704950649614 -1200.3423631990981 -1395.9681738650281 0 0 1
2560 171 10 1 -1147.0756891298254 -1238.0296060436222 -1390.6498479262632 0 0 1
2557 171 7 2 -1090.4820181565535 -1261.4254852128074 -1387.8835342835948 0 0 1
3770 252 5 0 -1914.695915173526 -1195.7775279013597 -1423.6424823989278 0 0 0
3775 252 10 1 -1804.9950786848299 -1199.2784486556054 -1404.818702329225 0 0 0
3777 252 12 0 -1862.6897272332126 -1180.1913755966716 -1379.8775245986853 0 0 0
2553 171 3 -1.5 -1233.8502217429677 -1165.6003791723 -1383.5500010101543 0 0 1
2563 171 13 -0.5 -1242.5331702013384 -1128.152750935369 -1402.3574682185165 0 0 1
1084 73 4 0 -2549.1576327880884 -1006.205508548968 -1410.5502689971395 0 0 1
1814 121 14 -1.5 -2794.955864309269 -598.1506037878136 -1415.2528679011514 0 0 0
1806 121 6 -0.5 -2754.1565861774875 -584.3921484319818 -1407.312477287429 0 0 0
1809 121 9 0 -2716.6681936335144 -541.872452691487 -1394.0484397701832 0 0 0
1811 121 11 1 -2696.9428093811225 -480.1789693142985 -1378.367536372237 0 0 0
916 62 1 0 -914.9433318435864 -482.6599767540799 -1374.633046539972 0 0 0
963 65 3 -1.5 -2717.10076718147 -422.7567358048677 -1406.792782926843 0 0 0
1807 121 7 2 -2687.3774041306115 -427.4344128041368 -1368.279751555452 0 0 0
972 65 12 0 -2697.3639038710494 -379.967505421813 -1404.4810439020255 0 0 0
970 65 10 1 -2653.340748734872 -338.75147302505815 -1380.5472237915653 0 0 0
1810 121 10 1 -2681.8285638799857 -369.33341241772433 -1350.6121898497552 0 0 0
1801 121 1 0 -2850.717040295564 -237.92905479846718 -1419.408768127818 0 0 0
1805 121 5 0 -2728.866462934627 -258.44446123054786 -1412.7061849671127 0 0 0
1803 121 3 -1.5 -2643.861313808502 -269.52367279516426 -1352.1369442293926 0 0 0
967 65 7 2 -2610.4095099024703 -298.93770545830773 -1360.6062848350257 0 0 0
2937 196 12 0 -2553.8113218638728 -231.44116249083697 -1371.8566542569024 0 0 0
2928 196 3 -1.5 -2604.0272185750723 -239.39434805139877 -1362.3128165907974 0 0 0
1813 121 13 -0.5 -2601.3749337966683 -260.182470570175 -1352.588902103704 0 0 0
2935 196 10 1 -2498.074726876161 -198.37103875254274 -1360.5020326567928 0 0 0
1063 71 13 -0.5 -796.5675219831909 129.2823255656369 -1423.4608621184311 0 0 0
1053 71 3 -1.5 -788.8475134386446 168.85612061288123 -1407.878820362529 0 0 0
1060 71 10 1 -708.4357690955865 242.0237406082656 -1419.0783398274748 0 0 0
1057 71 7 2 -654.2889946906264 272.1426154177722 -1415.7740550786368 0 0 0
1723 115 13 -0.5 -653.1490209956922 293.11691438142054 -1382.7061037692279 0 0 0
1061 71 11 1 -610.8913801932158 302.7066833843238 -1406.086224173425 0 0 0
1059 71 9 0 -554.1377201188918 328.98842530932535 -1381.5020927757039 0 0 0
1065 71 15 0 -531.46089587228 370.55396893704386 -1401.7975567400792 0 0 0
1056 71 6 -0.5 -522.303356654521 364.92344402644073 -1357.6685836995673 0 0 0
1720 115 10 1 -550.114760516359 380.46582735372385 -1356.788303287997 0 0 0
1717 115 7 2 -509.0116046211187 423.9999373340547 -1370.853172134888 0 0 0
4929 329 9 0 -1807.5672371623575 508.1498442112369 -1394.9407355728945 0 0 0
1054 71 4 0 -534.5998245722969 513.3666787968662 -1411.7754264398664 0 0 0
1052 71 2 0 -523.5100762332708 458.53748400958386 -1411.141952983376 0 0 0
1721 115 11 1 -473.56056301671833 463.3383134366243 -1382.600143931989 0 0 0
1719 115 9 0 -423.99597177329105 508.41796595422704 -1385.0633706245574 0 0 0
4926 329 6 -0.5 -1800.6101054978792 543.0961984503226 -1351.344518983902 0 0 0
1415 95 5 0 -1568.7886347211502 550.3581285178446 -1358.7846414845912 0 0 0
1418 95 8 0 -1505.3773422016845 541.8662627464885 -1378.3429513128037 0 0 0
1411 95 1 0 -1471.0518325303851 544.3108629161013 -1424.8680398154938 0 0 0
1716 115 6 -0.5 -401.2857479377901 558.5446122490879 -1383.068654598015 0 0 0
1724 115 14 -1.5 -395.9105345565657 597.4936372601459 -1404.415998549758 0 0 0
4244 283 14 -1.5 -2040.318243422374 1058.4127277517878 -1351.2209392479651 0 0 0
4236 283 6 -0.5 -2071.9482224400476 1090.315310670238 -1353.247487074497 0 0 0
4356 291 6 -0.5 -2033.9325695171444 1089.1983899644977 -1386.4093851813382 0 0 0
4481 299 11 1 -2037.5250623594227 1082.208705072398 -1399.2848623298037 0 0 0
4359 291 9 0 -2051.7659909150984 1131.3318912259344 -1355.3941575800768 0 0 0
4264 285 4 0 -347.14300856078273 1238.3832476085345 -1379.472390978121 0 0 0
2411 161 11 1 -2298.5279179451823 -1436.8006571104872 -1324.833721781898 0 0 0
2552 171 2 0 -881.1645345062323 -1407.5089364606436 -1334.7512193125458 0 0 1
2554 171 4 0 -831.9483265061689 -1422.993866236654 -1303.9979895982233 0 0 1
2556 171 6 -0.5 -930.5644522597598 -1292.9363908510445 -1348.5130009291272 0 0 1
2564 171 14 -1.5 -906.7023050306096 -1304.1076694500696 -1312.9390908407381 0 0 1
3768 252 3 -1.5 -1889.0440818193283 -1160.485941342041 -1342.505410489846 0 0 0
3778 252 13 -0.5 -1893.937054434016 -1164.0217300246495 -1300.343387750547 0 0 0
1804 121 4 0 -2656.3424425989533 -709.4545794178115 -1323.5011696820902 0 0 0
1815 121 15 0 -2703.5448891700344 -609.2157024792655 -1339.0413860908004 0 0 0
1802 121 2 0 -2693.2260548286713 -670.3646483630749 -1328.1545844137163 0 0 0
5521 369 1 0 -2634.1888215026224 -584.5251957863629 -1309.7273996249005 0 0 0
5528 369 8 0 -2624.9796511314876 -531.123046893233 -1304.1049694004028 0 0 0
5525 369 5 0 -2639.2371481839405 -465.273444612091 -1309.4598013157677 0 0 0
5533 369 13 -0.5 -2710.42881811624 -400.0562635749471 -1348.8850094951817 0 0 0
5523 369 3 -1.5 -2703.3830423820327 -375.64129460825467 -1314.7766497341318 0 0 0
923 62 8 0 -877.4560575498484 -447.66183977190894 -1329.5867711120347 0 0 0
1812 121 12 0 -2671.6527939372572 -310.26306234840473 -1340.6060741574063 0 0 0
646 44 1 0 -170.43416309335097 -347.72809065048034 -1314.4863888511773 0 0 0
2938 196 13 -0.5 -2626.306166311812 -270.25027065931795 -1342.1483201375609 0 0 0
971 65 11 1 -2573.7190695422896 -267.1395659536628 -1337.335299472549 0 0 0
653 44 8 0 -168.69775862676556 -292.1769804222955 -1282.4960726176216 0 0 0
969 65 9 0 -2526.5028659087293 -222.42194645085388 -1323.2125124016293 0 0 0
966 65 6 -0.5 -2475.2253652421487 -204.81068585781458 -1316.5244271279228 0 0 0
975 65 15 0 -2515.514791365887 -166.1696703581718 -1291.2051254748144 0 0 0
2932 196 7 2 -2447.035968756927 -167.50128409914186 -1347.965996221178 0 0 0
974 65 14 -1.5 -2435.8353417905355 -205.45368405369305 -1336.9501494982135 0 0 0
2936 196 11 1 -2402.1016667988 -143.07598780932562 -1332.175424163282 0 0 0
2934 196 9 0 -2350.4350991459796 -103.71332898655022 -1321.793677762479 0 0 0
964 65 4 0 -2559.954490451893 -31.559451597020033 -1279.4765692425763 0 0 0
2931 196 6 -0.5 -2326.827863304318 -56.09553758986797 -1310.2416501238495 0 0 0
2939 196 14 -1.5 -2291.8227883053682 -29.455338820124137 -1317.293943765578 0 0 0
1713 115 3 -1.5 -631.4676764412516 303.7688205432802 -1347.5972122077976 0 0 0
1722 115 12 0 -601.4876921105656 340.2405028593689 -1341.1866614413968 0 0 0
4922 329 2 0 -1831.4268876364695 440.67334662381984 -1293.2926596709508 0 0 0
1064 71 14 -1.5 -517.8810070981671 404.19958000783487 -1338.3675501009582 0 0 0
4935 329 15 0 -1808.0985227445203 487.0651226619797 -1340.4847612373705 0 0 0
1423 95 13 -0.5 -1630.2158114287388 450.12239358900456 -1325.079873712401 0 0 0
1413 95 3 -1.5 -1633.5306180824227 488.1606425077682 -1305.7746892357193 0 0 0
1725 115 15 0 -387.89398825571516 522.8922399321483 -1338.9354654023707 0 0 0
4934 329 14 -1.5 -1798.9771623479974 583.375724606313 -1332.6303945386433 0 0 0
1420 95 10 1 -1682.7495894929302 584.6878814563034 -1312.2306824167233 0 0 0
1422 95 12 0 -1651.1684087838078 528.3125963497014 -1323.7270918326492 0 0 0
1417 95 7 2 -1715.5422577911202 633.5596964932828 -1292.8907243955775 0 0 0
1421 95 11 1 -1739.591140104752 680.0664827899118 -1277.6902990999856 0 0 0
1425 95 15 0 -1806.3613062831039 771.658058580318 -1276.5691444846336 0 0 0
4245 283 15 0 -2037.0685358347098 1109.1260985066585 -1312.1092424245523 0 0 0
4485 299 15 0 -2004.218414761341 1059.497471397305 -1313.606787006255 0 0 0
4479 299 9 0 -2002.2815003573353 1088.2167797518673 -1343.0168787635657 0 0 0
4476 299 6 -0.5 -1991.7628494893604 1091.5575790195396 -1288.5449170311308 0 0 0
4241 283 11 1 -2114.2069947471446 1171.938578221537 -1279.5426786672967 0 0 0
4239 283 9 0 -2095.2333560616653 1133.2529790639128 -1329.7157883649825 0 0 0
4361 291 11 1 -2063.4230436483617 1167.305260127185 -1302.8305253868004 0 0 0
4262 285 2 0 -322.1018741375554 1238.0039064969505 -1318.7353763917042 0 0 0
3630 242 15 0 -52.237132855568284 -1496.9945739102595 -1218.0376312181659 0 0 0
2415 161 15 0 -2354.878424108754 -1382.6832342844748 -1253.1847766170513 0 0 0
2402 161 2 0 -2395.806970198941 -1352.221358644841 -1204.6346407577953 0 0 0
2409 161 9 0 -2302.391819989974 -1404.569277117426 -1267.1593605928679 0 0 0
2406 161 6 -0.5 -2315.517904532746 -1391.7709440118044 -1219.8567488551325 0 0 0
249 17 9 0 -975.6116114759399 -488.19792362719807 -1204.3307115554483 0 0 0
246 17 6 -0.5 -929.8775915860957 -456.52132271334193 -1209.0526098809835 0 0 0
254 17 14 -1.5 -890.0178732850538 -452.32755520454793 -1227.185488720765 0 0 0
920 62 5 0 -835.256568067993 -458.488966023743 -1256.528613301756 0 0 0
5532 369 12 0 -2676.1001809621257 -388.0167512894515 -1274.3788780046916 0 0 0
5530 369 10 1 -2674.0428850127805 -393.09677008111794 -1209.3720828293187 0 0 0
650 44 5 0 -144.55551297627278 -221.4487291165994 -1238.2549208651944 0 0 0
962 65 2 0 -2542.13787976539 -80.50064695626513 -1271.7892600621365 0 0 0
2940 196 15 0 -2281.3396069166643 -103.338552502492 -1273.3262712027008 0 0 0
3121 209 1 0 -1314.990189374253 -95.36920787112874 -1245.7320731553575 0 0 0
658 44 13 -0.5 -227.4623561513387 -104.53103749986929 -1226.99319433919 0 0 0
648 44 3 -1.5 -186.49795747194207 -96.63904371277599 -1217.030566506567 0 0 0
1715 115 5 0 -640.3727277467475 367.8568299845664 -1215.3023132124215 0 0 0
4924 329 4 0 -1864.5320075369684 387.53775919100576 -1268.5220267402538 0 0 0
1712 115 2 0 -320.0287076089208 529.9256966121467 -1249.2189655970358 0 0 0
1714 115 4 0 -273.6016122792283 541.1858862565178 -1209.682233261962 0 0 0
1419 95 9 0 -1756.7204275923489 740.6463507416272 -1259.9625940958497 0 0 0
1416 95 6 -0.5 -1784.9127568941487 781.4715998073019 -1233.7881772973346 0 0 0
1414 95 4 0 -1918.3433759094207 891.3215696335523 -1251.7909157802883 0 0 0
1412 95 2 0 -1869.2633008673029 851.4769533713085 -1266.1050313571639 0 0 0
4472 299 2 0 -1979.9909204565693 1024.174528631596 -1261.7412072521402 0 0 0
4474 299 4 0 -1959.9377988016356 1028.930120428395 -1211.823038225702 0 0 0
4232 283 2 0 -1956.4214789871298 1076.745798890116 -1243.2561783254332 0 0 0
4484 299 14 -1.5 -2002.9568951344318 1081.2954637140472 -1246.9367567762138 0 0 0
4234 283 4 0 -1905.0470034796604 1054.8419441711312 -1234.5431290784727 0 0 0
4237 283 7 2 -2117.900210705601 1202.63753959761 -1234.7988680738338 0 0 0
4360 291 10 1 -2104.7458376681875 1245.2440946018496 -1226.8156654567445 0 0 0
4357 291 7 2 -2083.8788429947926 1202.0135952042383 -1265.7591029652083 0 0 0
4185 279 15 0 -542.2775453914055 1266.7285532697754 -1201.9477524337603 0 0 0
4172 279 2 0 -477.5903850645226 1244.304326799363 -1210.0413619349904 0 0 0
5379 359 9 0 -401.30669621101265 1268.9623056535634 -1218.3249386627344 0 0 0
4275 285 15 0 -338.3603857224913 1250.3196074954824 -1230.945289892999 0 0 0
5376 359 6 -0.5 -365.0640104885537 1273.02868671718 -1260.2185003221177 0 0 0
4266 285 6 -0.5 -312.19771679274504 1276.305638717841 -1228.2736705244242 0 0 0
5384 359 14 -1.5 -323.43584940777515 1282.3665197697414 -1273.030100759814 0 0 0
5385 359 15 0 -343.4487661989264 1313.040198852276 -1223.8345650026363 0 0 0
4274 285 14 -1.5 -283.30752484521474 1299.174162739985 -1253.2632953146608 0 0 0
5372 359 2 0 -279.7571785618098 1339.0434510713899 -1221.0403242801285 0 0 0
5374 359 4 0 -227.52969752762468 1341.5661953741956 -1245.4610267062433 0 0 0
4268 285 8 0 -647.0564641186082 1357.068101189655 -1216.9198350306933 0 0 0
4261 285 1 0 -638.7823251378725 1374.3732085669344 -1265.365871856904 0 0 0
4231 283 1 0 -2150.5669633768 1471.433846347097 -1224.916842205808 0 0 0
3617 242 2 0 -0.024281694158836905 1472.6011869100055 -1263.7251618717403 0 -1 0
3622 242 7 2 -196.93042523378236 -1445.0808253823925 -1130.878983769546 0 0 0
3626 242 11 1 -146.5567227118158 -1464.1685474678836 -1137.5144212762484 0 0 0
3624 242 9 0 -88.48756263730839 -1490.1451438550343 -1149.2693108795909 0 0 0
3621 242 6 -0.5 -37.10648675578774 -1493.4957438395288 -1161.1491841902257 0 0 0
2414 161 14 -1.5 -2304.261914613017 -1373.6049967153933 -1180.919235108054 0 0 0
3627 242 12 0 -306.3043803139103 -1373.8792161453875 -1131.3408952109487 0 0 0
3625 242 10 1 -248.3867895794378 -1411.8329865785274 -1125.783157095591 0 0 0
3868 258 13 -0.5 -244.10195931805185 -1354.8213653909413 -1130.685998530202 0 0 0
2404 161 4 0 -2421.5101476280365 -1316.0710028622418 -1176.917455027537 0 0 0
3856 258 1 0 -469.366190266921 -1307.1951570468416 -1177.74934327813 0 0 0
3863 258 8 0 -425.92766918892664 -1337.3462882619453 -1156.7535831551495 0 0 0
3628 242 13 -0.5 -370.1155371839776 -1323.2789502195287 -1151.6402644513892 0 0 0
3618 242 3 -1.5 -328.7604275123491 -1328.3365973522134 -1143.5234518122752 0 0 0
2662 178 7 2 -15.860357579700501 -833.4344163277779 -1133.9789315376995 0 0 0
2663 178 8 0 -244.08679821262427 -721.3229453073942 -1139.1913730745082 0 0 0
1612 108 7 2 -1284.7420236574783 -608.4386243970999 -1133.7641081251988 0 0 0
1613 108 8 0 -1503.303772627389 -544.0084819558169 -1127.1970719236615 0 0 0
253 17 13 -0.5 -1270.9064639305705 -571.7259086443198 -1140.2414478915068 0 0 0
1616 108 11 1 -1242.1680848038513 -582.4288347259408 -1153.303802803961 0 0 0
243 17 3 -1.5 -1251.4604594757254 -536.1057199648304 -1155.1844983086921 0 0 0
1614 108 9 0 -1186.1828829369585 -548.5711321137396 -1162.2333676801252 0 0 0
1606 108 1 0 -1553.07035447513 -513.2943039972448 -1144.365262239971 0 0 0
252 17 12 0 -1209.796142554066 -510.4347826145395 -1142.9737561153997 0 0 0
1611 108 6 -0.5 -1140.5770149823074 -519.1381627998917 -1152.0627071389201 0 0 0
250 17 10 1 -1146.2609256376861 -512.0551428565758 -1152.7031852832238 0 0 0
1620 108 15 0 -1183.0003087816267 -477.22539218890813 -1165.9157605916673 0 0 0
1619 108 14 -1.5 -1116.6169564082627 -482.8340464028948 -1161.2275437825476 0 0 0
247 17 7 2 -1086.2459238901927 -509.8404953065349 -1169.3520119869986 0 0 0
251 17 11 1 -1037.4819404665052 -504.3616473952243 -1192.4867517750815 0 0 0
255 17 15 0 -897.0334828363286 -483.24927529933035 -1153.7584713468066 0 0 0
927 62 12 0 -845.6409858028935 -457.8352201371563 -1176.6237609700052 0 0 0
242 17 2 0 -824.0216602436649 -491.9128772512937 -1137.0874145410232 0 0 0
5527 369 7 2 -2667.598567977529 -401.56850673710665 -1148.2509830455524 0 0 0
248 17 8 0 -1272.7174142237823 -399.04803744803314 -1148.632053492457 0 0 0
245 17 5 0 -1236.7252971448377 -432.0838552320246 -1151.0434735172805 0 0 0
1607 108 2 0 -1163.9443204710187 -394.2121296005827 -1164.6632302186024 0 0 0
928 62 13 -0.5 -921.3280542300614 -419.4693627495447 -1164.6306319689845 0 0 0
918 62 3 -1.5 -893.8022595938955 -447.78737728188804 -1182.9282866173983 0 0 0
925 62 10 1 -787.5072004515943 -449.28159394099515 -1152.4125208742332 0 0 0
1609 108 4 0 -1180.1053941643072 -337.0239102626693 -1173.9908986562302 0 0 0
5431 363 1 0 -583.5646136353296 -204.08150793193457 -1179.8488857890225 0 0 0
2927 196 2 0 -2255.646131176259 -109.97967295013049 -1178.9408784458526 0 0 0
3128 209 8 0 -1281.6190054878987 -104.30741510380201 -1186.8545528193463 0 0 0
657 44 12 0 -157.70861945347986 -122.19469060747056 -1185.1151340095605 0 0 0
655 44 10 1 -131.69118893682202 -128.47680592360018 -1126.3456823668819 0 0 0
1294 87 4 0 -777.636692493148 263.72405577190574 -1153.568122546465 0 0 0
3023 202 8 0 -837.9297452748991 323.9702678469234 -1168.2304374142602 0 0 0
3016 202 1 0 -864.8025645985302 374.9867795981255 -1194.9724228629584 0 0 0
1424 95 14 -1.5 -1792.7470267529009 804.399193900968 -1196.867245551584 0 0 0
5162 345 2 0 -2050.4804257989836 975.9396242163958 -1148.093530421691 0 0 0
5164 345 4 0 -2033.890327705291 1004.4284969499498 -1199.3335565629484 0 0 0
5626 376 1 0 -1008.4967305670691 1149.0764789292004 -1158.128091996018 0 0 0
4900 327 10 1 -719.1029982756295 1170.1367032409862 -1126.7432531665143 0 0 0
4897 327 7 2 -667.5575485105484 1199.2260141748068 -1145.9235561878454 0 0 0
4240 283 10 1 -2109.6079347609493 1237.1692129365274 -1184.399848721443 0 0 0
4177 279 7 2 -708.3917955859064 1219.9494939987626 -1127.3849170500193 0 0 0
4901 327 11 1 -619.5031544602509 1219.7152177611886 -1159.9091342675233 0 0 0
4181 279 11 1 -659.8007370932509 1240.621769234061 -1140.4065075908925 0 0 0
5639 376 14 -1.5 -632.212643034783 1204.5062115520034 -1129.7361791634964 0 0 0
4899 327 9 0 -563.4754090711195 1255.2718163197424 -1161.4758190422706 0 0 0
4270 285 10 1 -525.1440840079728 1237.2629581722674 -1136.0315800814196 0 0 0
4896 327 6 -0.5 -508.7985623854242 1262.9834220025484 -1167.7677887266693 0 0 0
4267 285 7 2 -467.96650195336224 1249.5652318824998 -1155.7141860511035 0 0 0
4174 279 4 0 -425.2998179427506 1209.4451987894765 -1177.358330093829 0 0 0
4271 285 11 1 -419.16273280241046 1263.3491663937525 -1173.921333463503 0 0 0
4269 285 9 0 -355.5447677119805 1273.0327446364076 -1192.490441819174 0 0 0
4242 283 12 0 -2100.9916039293853 1276.5634074425082 -1135.2053737852466 0 0 0
4362 291 12 0 -2119.172084939785 1293.0205672566713 -1183.5793148951434 0 0 0
4353 291 3 -1.5 -2108.128342696322 1327.0030461104477 -1152.7258987605717 0 0 0
4179 279 9 0 -603.9146311452098 1276.4912775526175 -1149.6105997519464 0 0 0
4265 285 5 0 -640.9717379196279 1305.3826166919903 -1183.5177875727445 0 0 0
4176 279 6 -0.5 -555.7624246697072 1295.8488893785786 -1146.2678488428705 0 0 0
5380 359 10 1 -559.6453626368107 1278.6403435069744 -1125.316031518685 0 0 0
5381 359 11 1 -458.32757669912115 1281.003741735519 -1181.2975161487434 0 0 0
5377 359 7 2 -505.8586317581317 1278.0656651271038 -1155.2694618576472 0 0 0
4904 327 14 -1.5 -475.1530839069329 1291.3842849716632 -1176.2414233926095 0 0 0
4184 279 14 -1.5 -520.0469212007138 1314.6793726199105 -1165.3220435507071 0 0 0
4235 283 5 0 -2161.876412838181 1352.886881835092 -1157.4872190420963 0 0 0
4238 283 8 0 -2160.090703902787 1438.1571195817528 -1157.000449431895 0 0 0
3629 242 14 -1.5 -0.7690596462992545 1480.517597831364 -1161.330013525495 0 -1 0
3616 242 1 0 -478.677772743599 -1489.9383798268957 -1056.1708499733986 0 0 0
3623 242 8 0 -429.04243061974836 -1491.0737512297308 -1100.4121792199473 0 0 0
3620 242 5 0 -371.698285980727 -1417.7492739085196 -1112.6640529382385 0 0 0
3867 258 12 0 -300.4759298556645 -1374.415387937509 -1069.1181938996458 0 0 0
3858 258 3 -1.5 -264.1874595497985 -1379.8885707987035 -1102.516199973904 0 0 0
3860 258 5 0 -371.70121347828626 -1344.8658893102997 -1108.2548644270153 0 0 0
3751 251 1 0 -646.8773419695189 -946.7261346489993 -1063.8427917578008 0 0 0
1318 88 13 -0.5 -162.74134884930527 -918.7280462797713 -1053.6836982905845 0 0 0
1308 88 3 -1.5 -128.05086764610172 -893.5110240574503 -1056.0226383616796 0 0 0
2667 178 12 0 -114.0966782964332 -844.4696791110416 -1067.805746550838 0 0 0
2665 178 10 1 -59.939214816643364 -832.5434002305826 -1090.9287560051669 0 0 0
2660 178 5 0 -185.19424348434174 -775.0316346609106 -1121.5459249060875 0 0 0
1608 108 3 -1.5 -1410.755772830694 -704.2882076083025 -1066.638806352989 0 0 0
2656 178 1 0 -259.1141762437243 -680.1826017001403 -1121.1755981857705 0 0 0
1617 108 12 0 -1387.8652900220784 -673.8642354192581 -1101.3757522127762 0 0 0
1615 108 10 1 -1332.6008326981641 -644.4212731345364 -1118.557024171731 0 0 0
1610 108 5 0 -1471.5112906329148 -583.2501450651538 -1098.8626547011002 0 0 0
244 17 4 0 -773.3033991281737 -477.69475267157924 -1116.21775616391 0 0 0
5531 369 11 1 -2662.2462643345657 -415.80048682810036 -1096.938550171199 0 0 0
922 62 7 2 -737.9582016561682 -425.87973756786687 -1124.6019120717338 0 0 0
3388 226 13 -0.5 -711.6520791762694 -430.4525640252043 -1095.5605382442345 0 0 0
926 62 11 1 -704.5456137381158 -397.09975886512734 -1091.8563878422897 0 0 0
3378 226 3 -1.5 -715.3569478952691 -389.7283114973478 -1110.4006819859842 0 0 0
241 17 1 0 -1299.1636848790886 -344.6452291206966 -1102.383681483194 0 0 0
3124 209 4 0 -847.4642345398256 -304.6830278462873 -1062.8752149175298 0 0 0
5061 338 6 -0.5 -780.5047104579587 -306.0131345659935 -1071.2406972465876 0 0 0
5069 338 14 -1.5 -739.3707354643434 -321.7135419118882 -1076.0035438525179 0 0 0
3387 226 12 0 -685.6595128927685 -353.0065345325256 -1102.4658072203563 0 0 0
3385 226 10 1 -635.0388053836822 -330.4106734540118 -1071.0480515530562 0 0 0
924 62 9 0 -660.4906041958498 -367.41675187421623 -1053.3455477471052 0 0 0
3122 209 2 0 -899.2108604216666 -282.34052907912 -1059.5219166776203 0 0 0
3376 226 1 0 -877.2750140287504 -279.2987514378392 -1059.0115744074267 0 0 0
3383 226 8 0 -809.1839190931406 -276.96002065478564 -1110.9259761782507 0 0 0
3380 226 5 0 -744.6798720811461 -286.79174960497926 -1116.6471211796045 0 0 0
5438 363 8 0 -601.2764915980476 -189.42587999913587 -1115.770567592543 0 0 0
5435 363 5 0 -598.5641657422154 -219.5024830283341 -1062.1458009315738 0 0 0
2929 196 4 0 -2254.1492180623422 -105.25581178611854 -1116.3080575744862 0 0 0
3125 209 5 0 -1256.8441460159622 -105.51285626335155 -1122.879251361239 0 0 0
652 44 7 2 -109.44516445947478 -147.95327469203602 -1072.200787705395 0 0 0
1291 87 1 0 -1245.2903025068204 181.91451694061433 -1064.9508268988734 0 0 0
1292 87 2 0 -799.8938624612533 280.98624264568014 -1109.7167124429209 0 0 0
994 67 4 0 -748.1262308412244 275.31105802351567 -1054.1736798407787 0 0 0
3020 202 5 0 -803.7598512360586 339.2745227334788 -1116.999117959416 0 0 0
3025 202 10 1 -681.7832068056485 370.1139639186138 -1050.7672407914963 0 0 0
1711 115 1 0 -617.9707005164034 355.5313826186068 -1085.8142310792637 0 0 0
1718 115 8 0 -639.6960971064 394.3261373988595 -1123.4893481405684 0 0 0
2399 160 14 -1.5 -614.5668467681255 389.4828273486674 -1061.5175857926056 0 0 0
3022 202 7 2 -643.6253007140394 415.0326476061059 -1070.0851942513293 0 0 0
3026 202 11 1 -611.2079563556351 455.9505891052115 -1082.413153516449 0 0 0
2387 160 2 0 -616.644419341717 492.34570948146416 -1053.9001493227547 0 0 0
3024 202 9 0 -569.969990017312 501.13127561043086 -1107.4940341920058 0 0 0
3030 202 15 0 -495.8202634696393 500.26771195950465 -1103.5303520318894 0 0 0
3017 202 2 0 -424.2150459843924 509.5464481266883 -1081.3739304386602 0 0 0
5161 345 1 0 -1838.5730128200883 586.2867600666455 -1062.5376934489436 0 0 0
3523 235 13 -0.5 -1347.5125417778977 564.7439855260449 -1061.8152507308425 0 0 0
2389 160 4 0 -606.1953812731538 556.8868577544271 -1060.6944385961306 0 0 0
3021 202 6 -0.5 -540.2090824734704 546.0587738637316 -1105.4787605827705 0 0 0
3029 202 14 -1.5 -516.5142026966333 576.8344095887095 -1084.3118209294917 0 0 0
4663 311 13 -0.5 -1220.334334480461 735.92223013077 -1124.723053017654 0 0 0
4653 311 3 -1.5 -1218.956731154554 765.558750132341 -1093.3709842614558 0 0 0
4662 311 12 0 -1182.8121992777894 798.267919758182 -1075.942846749848 0 0 0
4660 311 10 1 -1144.508412232214 852.6229280455437 -1080.7493787520823 0 0 0
4657 311 7 2 -1104.022323891296 899.2390165785663 -1073.8589773146118 0 0 0
5175 345 15 0 -2052.708003950338 946.157899673261 -1060.5611904646084 0 0 0
4083 273 3 -1.5 -1052.9106716824185 912.8681626702564 -1060.7965722867727 0 0 0
4661 311 11 1 -1067.0916413298905 936.5631034434435 -1060.839913987356 0 0 0
4092 273 12 0 -1006.3627435532563 925.6528026081038 -1052.2592092786333 0 0 0
4090 273 10 1 -962.0871085400119 971.2860996694876 -1057.8077414160457 0 0 0
4066 272 1 0 -2726.6394165200168 1031.385966567037 -1121.3277975112292 0 0 0
4073 272 8 0 -2693.312180893017 1043.9973197691527 -1056.23138940644 0 0 0
4665 311 15 0 -1001.349897776963 1022.8912640931009 -1082.9266078926937 0 0 0
4659 311 9 0 -1014.5154690980968 978.5312179838262 -1057.6231935458206 0 0 0
5638 376 13 -0.5 -957.4919339200043 1012.6744730991566 -1095.3683851896133 0 0 0
2188 146 13 -0.5 -956.751022820137 1019.8746289092695 -1091.2762172010323 0 0 0
4087 273 7 2 -922.3241657214066 1015.9639194535002 -1072.0942290821397 0 0 0
5628 376 3 -1.5 -937.3006119761634 1021.567567737596 -1057.8390561378303 0 0 0
4091 273 11 1 -880.6972293068078 1049.3642761574367 -1077.3360004848603 0 0 0
5633 376 8 0 -1007.1081618266077 1115.1417668183906 -1122.8174441488009 0 0 0
2178 146 3 -1.5 -961.1225988173057 1054.4354272780865 -1066.375098513307 0 0 0
4652 311 2 0 -925.6716327075674 1056.3084681100956 -1094.9278594581167 0 0 0
5630 376 5 0 -957.281135444367 1100.180714317789 -1076.689575351678 0 0 0
4654 311 4 0 -873.7011071114882 1100.4573648067656 -1104.8908239848893 0 0 0
4903 327 13 -0.5 -846.9831468376532 1123.1396400791305 -1071.6224370668165 0 0 0
4089 273 9 0 -821.5139625472219 1079.5299031546076 -1070.7393610148526 0 0 0
4893 327 3 -1.5 -813.3142211121474 1121.1052943349819 -1098.2217765848416 0 0 0
4086 273 6 -0.5 -787.4273003852212 1117.1740428926419 -1060.231786681332 0 0 0
4173 279 3 -1.5 -835.0793336264483 1141.689728045639 -1054.6054877839374 0 0 0
4902 327 12 0 -770.3238477232806 1142.6235057868969 -1098.19887339097 0 0 0
4180 279 10 1 -761.8745068506427 1199.7218770436168 -1102.3798277116366 0 0 0