LAMMPS data file via write_data, version 27 Jun 2024, timestep = 10560000, units = real

5730 atoms
15 atom types
5501 bonds
16 bond types
5730 angles
15 angle types

-3000 3000 xlo xhi
-1500 1500 ylo yhi
-1500 1500 zlo zhi

Masses

1 241.19
2 73.54000000000001
3 330.71
4 235.16
5 68.06999999999999
6 353.53
7 223.38
8 41.1
9 216.91
10 155.15
11 147.32
12 264.65
13 300.8
14 326.05
15 85.20999999999999

Pair Coeffs # lj/cut/coul/debye/gpu

1 0.71637 40.7505
2 0.665709 48.1397
3 1.15033 39.2216
4 0.726774 43.8077
5 0.514724 53.3428
6 1.17127 41.7847
7 1.2256 38.5601
8 0.675431 54.5696
9 1.26117 43.78
10 0.939007 42.5209
11 0.960667 41.1825
12 1.30988 48.0761
13 1.36645 37.7114
14 1.35529 39.2179
15 0.592003 47.2602

Bond Coeffs # harmonic

1 0.003 59.228
2 0.008 56.48
3 0.001 69.324
4 3.207 42.88
5 0.11 49.807
6 0.002 74.968
7 0.001 91.635
8 0.145 54.383
9 2.709 44.406
10 1.71 61.679
11 1.625 54.051
12 0.207 66.185
13 0.002 64.76
14 0.079 63.886
15 0.2 40
16 0.2 40

Angle Coeffs # harmonic

1 11.427 158.273
2 50.464 132.042
3 8.207 156.514
4 92.705 149.394
5 100 174.44
6 3.15 145.53
7 48.938 159.031
8 17.401 129.945
9 15.735 56.441
10 60 172.254
11 60.285 168.396
12 11.83 99.091
13 150 107.995
14 27.746 149.925
15 7.483 160.775

Atoms # full

2413 161 13 -0.5 -2386.433049827195 -1481.0993720661613 -1499.4067325653004 0 0 0
3771 252 6 -0.5 -1738.7903150654158 -1260.5537776130577 -1453.1009870872028 0 0 0
3774 252 9 0 -1786.9282619149474 -1247.9883502056882 -1426.4181110451407 0 0 0
3779 252 14 -1.5 -1695.5107972790972 -1268.0258972691172 -1453.5278251210993 0 0 0
3780 252 15 0 -1715.045989591169 -1217.8734765149227 -1447.6349640743417 0 0 0
3767 252 2 0 -1656.665375567434 -1158.1147875475344 -1432.646490135057 0 0 0
1806 121 6 -0.5 -2341.0377521889204 -722.3254092823195 -1497.4761543380473 0 0 0
1809 121 9 0 -2377.0359179836346 -686.9412666167443 -1473.4645522143671 0 0 0
1814 121 14 -1.5 -2305.9910554326493 -749.0276043946219 -1494.3790436912104 0 0 0
1807 121 7 2 -2478.0259972980098 -633.4867026460765 -1443.3826912961683 0 0 0
1810 121 10 1 -2530.965156832125 -607.0571773287643 -1426.631691446027 0 0 0
1811 121 11 1 -2431.670335710531 -653.6107563330222 -1463.1442869235018 0 0 0
1815 121 15 0 -2320.8265990165223 -671.5639151682464 -1495.4279912898141 0 0 0
1802 121 2 0 -2265.0680908737827 -643.4832916303178 -1498.0814674719327 0 0 0
1813 121 13 -0.5 -2639.84890453178 -534.0057896527969 -1454.0577533941726 0 0 0
2586 173 6 -0.5 -1666.8286761963975 -361.28602637563745 -1491.325270890554 0 0 1
2594 173 14 -1.5 -1630.6505237072859 -366.3020223498505 -1466.1045763635084 0 0 1
2584 173 4 0 -1510.8417114841097 -309.1452517323614 -1430.2400091120896 0 0 1
2582 173 2 0 -1558.4779742680264 -334.92400265512066 -1469.5704475088714 0 0 1
965 65 5 0 -2755.7674010610767 -247.04088189209733 -1463.3512692544457 0 0 0
964 65 4 0 -2334.083252665943 -293.03290552177316 -1426.6871972353076 0 0 0
1074 72 9 0 -455.6461986315259 -227.79755063173036 -1483.6097499266184 0 0 1
968 65 8 0 -2768.12533547075 -161.087046544244 -1473.144709979074 0 0 0
1071 72 6 -0.5 -432.4528902490687 -181.96165517631272 -1470.8896599940667 0 0 1
1079 72 14 -1.5 -406.13907961859053 -164.6216724869492 -1439.620930103472 0 0 1
1080 72 15 0 -361.2214785967005 -216.32089857344414 -1477.1118426269297 0 0 1
1067 72 2 0 -284.9103974646698 -191.89848581222293 -1447.6717894256772 0 0 1
961 65 1 0 -2752.1507961170937 -129.70247150095724 -1425.331004632525 0 0 0
2933 196 8 0 -2578.984847057269 -145.7939346627013 -1447.5524647730836 0 0 0
650 44 5 0 -271.67325814004846 -59.56744591867079 -1497.3408778532287 0 0 0
658 44 13 -0.5 -330.9593572575589 62.92149915274779 -1467.7361829900037 0 0 0
648 44 3 -1.5 -288.37639691753066 64.27171605531768 -1472.6177844733602 0 0 0
657 44 12 0 -246.16447809337095 40.25636059099247 -1449.1295310287364 0 0 0
1055 71 5 0 -529.287705577216 368.2372248433591 -1467.2686968350577 0 0 0
1058 71 8 0 -532.0443178094012 305.1038727412714 -1498.427024923536 0 0 0
1063 71 13 -0.5 -625.1898119058343 425.5519389003909 -1426.0782647634846 0 0 0
1413 95 3 -1.5 -1573.6691907646446 517.7073356199638 -1463.757741394261 0 0 0
4930 329 10 1 -1897.3196326587981 574.799609013929 -1442.3615525717132 0 0 0
4932 329 12 0 -1893.4058997588331 537.862486269068 -1494.1571914545052 0 0 0
1411 95 1 0 -1764.2767102488035 585.3728033828287 -1468.6653627154149 0 0 0
1418 95 8 0 -1719.7759326851103 551.3526496477612 -1432.8599645421 0 0 0
1423 95 13 -0.5 -1568.1871409366051 552.7896205902139 -1487.8522818587462 0 0 0
4482 299 12 0 -2107.2842750847108 972.6988748907536 -1499.236507142734 0 0 0
4480 299 10 1 -2065.028605189683 988.7373861914763 -1450.4529925839902 0 0 0
4474 299 4 0 -1753.1333537993721 1004.7522340869292 -1434.742247929962 0 0 0
4261 285 1 0 -571.3371462773815 1203.426187499879 -1454.9064600929942 0 0 0
2410 161 10 1 -2263.968933680629 1484.1905587542121 -1448.797678330225 0 -1 0
2412 161 12 0 -2310.6753824169573 1479.159167379415 -1492.4410496801117 0 -1 0
2411 161 11 1 -2191.254989924168 -1495.3298391217115 -1360.558234018111 0 0 0
3776 252 11 1 -1830.4167886531916 -1236.5522624629682 -1378.0863122861044 0 0 0
3769 252 4 0 -1622.8961737545164 -1124.1592584038128 -1401.2112277086815 0 0 0
1803 121 3 -1.5 -2620.2781344001623 -538.1981170935733 -1416.107780879334 0 0 0
1812 121 12 0 -2580.3077919259504 -569.0954029925311 -1406.260061379014 0 0 0
241 17 1 0 -1317.066106257435 -410.03402778277507 -1376.258762438812 0 0 0
973 65 13 -0.5 -2835.068345240389 -333.7674379823707 -1412.1641253308696 0 0 0
963 65 3 -1.5 -2793.508563411385 -341.9709772096532 -1409.3793820164262 0 0 0
972 65 12 0 -2751.1931391807357 -323.4804068073109 -1397.0207358907844 0 0 0
970 65 10 1 -2688.105718448986 -332.915355654893 -1378.772836071208 0 0 0
967 65 7 2 -2627.911147898453 -330.37378685181307 -1363.1827382097827 0 0 0
975 65 15 0 -2450.393663652472 -315.21595205559373 -1368.3017374164874 0 0 0
962 65 2 0 -2384.654782427637 -294.714018424358 -1395.53925198838 0 0 0
2930 196 5 0 -2562.2941888145538 -189.18392967296325 -1394.2486757528866 0 0 0
2927 196 2 0 -2207.2017520437994 -209.8019078585434 -1380.8905062093604 0 0 0
2929 196 4 0 -2180.0322795179145 -185.90139810769955 -1424.9946848851714 0 0 0
1069 72 4 0 -233.08989717822578 -195.1405031020308 -1403.5141439240485 0 0 1
655 44 10 1 -212.3808988926562 29.569929617396333 -1398.0303187855984 0 0 0
1711 115 1 0 -351.7053157568344 130.07466076844992 -1402.3555398110113 0 0 0
1422 95 12 0 -1579.7077635903681 512.5862354545577 -1414.7494604234828 0 0 0
1053 71 3 -1.5 -600.6806039648402 456.883876491468 -1410.7350928864407 0 0 0
1062 71 12 0 -555.639137464011 461.0622114423526 -1400.4742047052434 0 0 0
1060 71 10 1 -508.91251907949027 476.0311417259908 -1359.2739318524757 0 0 0
1415 95 5 0 -1651.6259860394048 525.509024619632 -1412.7181014859486 0 0 0
1420 95 10 1 -1553.1905185569826 527.8202393095936 -1359.9719366545116 0 0 0
4927 329 7 2 -1898.3484041306463 621.5539207613459 -1401.0320757379145 0 0 0
4931 329 11 1 -1903.0578722252578 658.7359455226047 -1361.6010981974825 0 0 0
4081 273 1 0 -1182.8795845867644 893.3489867024459 -1403.5295276620363 0 0 0
4088 273 8 0 -1140.3665671158537 920.718099945683 -1392.9004865760164 0 0 0
4477 299 7 2 -2017.255137469571 993.8739681738814 -1411.4460138197044 0 0 0
4481 299 11 1 -1971.5678132274463 997.9635134650687 -1383.054640282344 0 0 0
4472 299 2 0 -1788.212381511752 980.785946768188 -1395.241702556169 0 0 0
4234 283 4 0 -1888.2578875230515 1231.912688546983 -1394.529887085583 0 0 0
4178 279 8 0 -788.5692056780638 1207.7352944716185 -1386.5182619361858 0 0 0
4171 279 1 0 -762.0797832441054 1273.0323187666559 -1385.9898899747534 0 0 0
4268 285 8 0 -589.1623950748922 1223.2349196022124 -1376.7220710906636 0 0 0
2407 161 7 2 -2226.110121437609 1498.0505470477262 -1401.3192601474257 0 -1 0
2409 161 9 0 -2159.558512811738 -1479.1389027762582 -1304.4830612378535 0 0 0
2415 161 15 0 -2122.067479056094 -1426.6142992933017 -1288.2835852008243 0 0 0
2402 161 2 0 -2098.7283129553907 -1351.3823560837009 -1302.157390762057 0 0 0
2404 161 4 0 -2096.7849431839145 -1294.79045424679 -1318.581932670116 0 0 0
3623 242 8 0 -371.6448795289919 -1283.7721093793414 -1310.9806321581602 0 0 0
3775 252 10 1 -1906.0333410775092 -1221.2891058468738 -1292.5882200635197 0 0 0
3772 252 7 2 -1862.1790835892537 -1229.6148182113295 -1335.1058326206457 0 0 0
3616 242 1 0 -392.3301509074607 -1261.598008154285 -1328.4809845804168 0 0 0
3778 252 13 -0.5 -2024.4962114860036 -1166.3846867211912 -1282.8379651137732 0 0 0
2657 178 2 0 -29.349157801132673 -711.2706191015598 -1287.6535763404352 0 0 0
2659 178 4 0 -17.23456654854962 -655.6805596865383 -1320.8331097404134 0 0 0
1805 121 5 0 -2567.609375091959 -546.2994528482641 -1282.336484813871 0 0 0
248 17 8 0 -1311.9837905071558 -405.1638281295407 -1331.6568852829346 0 0 0
971 65 11 1 -2578.950824288574 -324.7598180329088 -1342.1722700789232 0 0 0
2938 196 13 -0.5 -2592.8543105283675 -328.89664532265556 -1341.3982068744585 0 0 0
969 65 9 0 -2517.15609863145 -306.9612927640042 -1326.8927516472268 0 0 0
2928 196 3 -1.5 -2579.8757294988463 -288.5001378859117 -1344.1035662970326 0 0 0
2937 196 12 0 -2546.1724393008694 -263.43203292558786 -1325.6019877848207 0 0 0
2935 196 10 1 -2488.3065015224397 -256.65338365988885 -1301.621728698828 0 0 0
966 65 6 -0.5 -2476.0024514638226 -276.2014112309937 -1308.1318728151575 0 0 0
974 65 14 -1.5 -2461.931177849678 -234.08522502505693 -1302.3083216771122 0 0 0
2932 196 7 2 -2429.1750678769795 -250.48745487991056 -1284.6608200569062 0 0 0
2940 196 15 0 -2265.685787421207 -227.5457933911763 -1324.2594336008463 0 0 0
656 44 11 1 -174.60196659469915 0.5567164412292761 -1292.3726574167576 0 0 0
652 44 7 2 -195.43529614215896 15.17727165244857 -1339.9986914693188 0 0 0
1718 115 8 0 -377.2288579931869 175.21618929611904 -1337.3531134527389 0 0 0
1057 71 7 2 -463.970996730499 498.3935411248946 -1323.7978279473389 0 0 0
1061 71 11 1 -429.172632222778 515.329874216734 -1285.727389839986 0 0 0
1417 95 7 2 -1523.3939761165645 544.9764018440992 -1309.0660608561998 0 0 0
4926 329 6 -0.5 -1954.0975462110819 736.7560475003334 -1292.0813518438608 0 0 0
4929 329 9 0 -1918.4075813578472 704.9233956448372 -1316.6345478989415 0 0 0
4935 329 15 0 -1941.1380450458853 803.9413847914532 -1311.1110717209142 0 0 0
4922 329 2 0 -1937.7420501958857 864.8171921085376 -1286.186996489726 0 0 0
4924 329 4 0 -1939.2418011433356 925.3480356179498 -1290.911063865132 0 0 0
4085 273 5 0 -1109.7392144242806 963.9048899271544 -1329.2115917785397 0 0 0
4654 311 4 0 -959.1753870796595 964.379045167226 -1330.1173910152029 0 0 0
4479 299 9 0 -1918.4334514341228 1011.8979234456128 -1344.3333999845531 0 0 0
4476 299 6 -0.5 -1893.036499738934 1027.0068362825098 -1298.704908007117 0 0 0
4485 299 15 0 -1853.713792097245 986.1328229508542 -1341.065333158365 0 0 0
4652 311 2 0 -1000.6872453706096 1004.7482742208913 -1327.6830398265663 0 0 0
4665 311 15 0 -1040.1563418097376 1026.4161923376419 -1288.4882972910857 0 0 0
4484 299 14 -1.5 -1869.5601353075808 1056.3316752724745 -1275.2219799909412 0 0 0
4651 311 1 0 -1371.2690212628586 1162.8122872471706 -1340.0768113278461 0 0 0
4175 279 5 0 -774.0927117414917 1170.612379111825 -1315.328860904125 0 0 0
4232 283 2 0 -1895.1076322695135 1228.9232900609459 -1336.20180579982 0 0 0
4245 283 15 0 -1929.8098568071698 1221.576777322679 -1275.3484193092654 0 0 0
4265 285 5 0 -562.0866809871789 1221.7206869735417 -1291.2179645722713 0 0 0
4238 283 8 0 -2170.952506427788 1434.982876181445 -1329.4755638407473 0 0 0
4231 283 1 0 -2148.840536783768 1487.15384073216 -1344.6700791297965 0 0 0
2406 161 6 -0.5 -2128.540747040272 -1486.5784844775485 -1259.9608854284859 0 0 0
3627 242 12 0 -318.487919286689 -1379.5108764099587 -1208.6428286216897 0 0 0
3618 242 3 -1.5 -364.42826156844063 -1394.5892884095538 -1207.8479753352567 0 0 0
3620 242 5 0 -341.8041334969694 -1295.7790093646022 -1255.3244413003524 0 0 0
3777 252 12 0 -1957.2378922973705 -1210.9589775615382 -1254.0231015688935 0 0 0
3768 252 3 -1.5 -2007.9464878159336 -1203.3413289286666 -1268.0589291794258 0 0 0
2670 178 15 0 -65.76922072992714 -760.8961661234136 -1220.8007188495121 0 0 0
916 62 1 0 -935.9345017850502 -548.2468802721122 -1216.3431156485915 0 0 0
1808 121 8 0 -2533.2003673668682 -511.00838328808766 -1206.4655763562916 0 0 0
245 17 5 0 -1287.4829972402147 -408.5546368223833 -1219.568781559476 0 0 0
2936 196 11 1 -2375.9791168314723 -248.07660929542033 -1273.627389153558 0 0 0
2934 196 9 0 -2311.5001794171717 -232.60534157548358 -1268.0912102061916 0 0 0
2931 196 6 -0.5 -2266.568890812209 -201.8500682160943 -1266.506825238846 0 0 0
2939 196 14 -1.5 -2251.2685685086967 -159.86870415288564 -1270.052202805632 0 0 0
660 44 15 0 -91.99088530090053 -13.840175210343283 -1208.70260172918 0 0 0
5057 338 2 0 -695.6024344542965 60.881986330541004 -1237.672408227097 0 0 0
654 44 9 0 -148.47333937381146 1.3946247084164187 -1229.2277592368405 0 0 0
5059 338 4 0 -670.7070986866269 84.89380494197599 -1274.7463988049421 0 0 0
1715 115 5 0 -355.98877674551244 216.44573793327646 -1259.1515319158348 0 0 0
1723 115 13 -0.5 -447.7268292608152 253.25294254275911 -1211.5495488724077 0 0 0
1054 71 4 0 -248.80648425666524 403.16492482939987 -1201.0666391830466 0 0 0
1052 71 2 0 -283.2098645161254 443.9507072023471 -1213.4347897001137 0 0 0
1059 71 9 0 -393.5303408449717 523.6267704728214 -1231.0049698151217 0 0 0
1065 71 15 0 -335.17737025727706 491.36771061093634 -1221.6159542371352 0 0 0
1421 95 11 1 -1506.031003259337 561.5781844899768 -1261.2448661099106 0 0 0
1419 95 9 0 -1473.0974840440806 585.3457586178221 -1209.3698318733475 0 0 0
4934 329 14 -1.5 -1982.073431036502 745.8699617725713 -1258.6135414203825 0 0 0
4681 313 1 0 -2931.9721441211254 753.1404684208511 -1224.5359760925749 0 0 0
4693 313 13 -0.5 -2885.00395730611 889.8801743636184 -1272.404313235007 0 0 0
4683 313 3 -1.5 -2866.984670385431 921.7377041246873 -1249.016345372946 0 0 0
4663 311 13 -0.5 -1393.7794778363207 946.2273788299451 -1210.1844405807676 0 0 0
4093 273 13 -0.5 -1181.1867595783626 971.175951564649 -1244.9847875890732 0 0 0
4662 311 12 0 -1321.9229021333654 992.4190943668483 -1217.8399815300581 0 0 0
4660 311 10 1 -1257.5941734616672 1000.8457275315775 -1233.5249478745202 0 0 0
4657 311 7 2 -1196.9303979474446 1009.1445537237265 -1244.8217371238468 0 0 0
4083 273 3 -1.5 -1150.7188715368466 998.4541736100164 -1232.1572672714242 0 0 0
4661 311 11 1 -1146.6156393556603 1022.3071370915306 -1258.350889771351 0 0 0
4659 311 9 0 -1086.5286491303225 1043.5888053600886 -1270.2493914897468 0 0 0
4092 273 12 0 -1101.7860471496183 1000.9172830537832 -1240.101543941079 0 0 0
4090 273 10 1 -1045.103159186353 1025.8978720532803 -1235.0530462735994 0 0 0
5638 376 13 -0.5 -992.2947423351984 1031.908608407453 -1250.818730267593 0 0 0
4658 311 8 0 -1366.2186318092054 1115.2350775318696 -1270.047609173844 0 0 0
4655 311 5 0 -1368.1708071906778 1071.5953799971346 -1251.61340652739 0 0 0
5628 376 3 -1.5 -994.8742450494885 1072.0700013621147 -1266.229697684801 0 0 0
4664 311 14 -1.5 -994.1256974573388 1057.4979862328246 -1265.4126293781628 0 0 0
4656 311 6 -0.5 -1038.2010093317392 1060.0363182248768 -1259.3036232249653 0 0 0
4087 273 7 2 -999.1563702558208 1065.3474751598317 -1226.6933784548032 0 0 0
5637 376 12 0 -965.5708986314245 1108.9183897988019 -1267.4691655214701 0 0 0
4091 273 11 1 -956.4087500948501 1096.9164260177179 -1216.0249759470346 0 0 0
4903 327 13 -0.5 -873.7974765679902 1113.0302623784562 -1216.5968987419822 0 0 0
4183 279 13 -0.5 -847.0604102736642 1124.6294402877775 -1248.7468012714342 0 0 0
4364 291 14 -1.5 -1873.1062709338473 1197.1881988082064 -1207.091736168592 0 0 0
5633 376 8 0 -1121.9834984869829 1186.2556087032488 -1201.4541995549305 0 0 0
5630 376 5 0 -1047.3835856302658 1135.9108273637146 -1212.4173087125812 0 0 0
5635 376 10 1 -912.579778326826 1130.1929897237474 -1239.744022246587 0 0 0
5632 376 7 2 -858.7052547583954 1150.461419162309 -1218.063343918943 0 0 0
4173 279 3 -1.5 -820.7292812740423 1127.8216714681535 -1215.0883968229612 0 0 0
4094 273 14 -1.5 -819.083966423598 1150.7965484511249 -1210.7888286257298 0 0 0
4182 279 12 0 -772.8456849418321 1141.6946743381616 -1213.5109081512987 0 0 0
5636 376 11 1 -810.246480871451 1170.2045979482837 -1203.1193638639868 0 0 0
5373 359 3 -1.5 -644.6618073556714 1181.5401805188576 -1200.6857985483043 0 0 0
4239 283 9 0 -1956.9791702023879 1237.4372425546896 -1208.5830500462644 0 0 0
4236 283 6 -0.5 -1904.651625403787 1245.8332147946705 -1223.5923573680366 0 0 0
4244 283 14 -1.5 -1862.165535682395 1236.8540107062408 -1215.7111597816856 0 0 0
5626 376 1 0 -1159.5027723230808 1231.0624635318047 -1226.7820264315285 0 0 0
4235 283 5 0 -2203.314256960621 1385.1169624694437 -1274.7587924383886 0 0 0
4358 291 8 0 -2153.0979254329636 1424.0456493424297 -1215.1784469329064 0 0 0
4351 291 1 0 -2103.1230334060124 1439.4502202579522 -1250.1471760132627 0 0 0
2414 161 14 -1.5 -2103.791399349115 1488.6177055316616 -1232.279810176586 0 -1 0
3628 242 13 -0.5 -381.4533539326385 -1433.0726650076797 -1198.0609605739712 0 0 0
3624 242 9 0 -95.37956253299805 -1465.0835299200548 -1182.682445364328 0 0 0
3630 242 15 0 -81.66575102610237 -1488.7794719530336 -1137.168398881085 0 0 0
3626 242 11 1 -149.7621991190783 -1426.050722398441 -1184.2385530347808 0 0 0
3621 242 6 -0.5 -41.715138877239525 -1484.2597259788117 -1182.737138106422 0 0 0
3625 242 10 1 -256.89295013736455 -1386.9232838881849 -1197.9873650289078 0 0 0
3622 242 7 2 -199.1772083343371 -1404.2721723276745 -1187.606714832021 0 0 0
3770 252 5 0 -1934.8297976610888 -1130.582786632852 -1199.1863585339756 0 0 0
3773 252 8 0 -1913.885541683285 -1095.6180322296461 -1159.2638610758472 0 0 0
2666 178 11 1 -115.46977135670919 -819.355567349965 -1136.1599853722964 0 0 0
2664 178 9 0 -62.455173118327316 -789.9153844346146 -1163.705521057746 0 0 0
2661 178 6 -0.5 -14.762796294750263 -781.7261535332672 -1194.869162130351 0 0 0
1618 108 13 -0.5 -1540.2326972111591 -601.6729510117777 -1199.9193038458868 0 0 0
1617 108 12 0 -1482.6921884496164 -604.1250229689523 -1138.6471193284888 0 0 0
5533 369 13 -0.5 -2618.1120214742223 -580.1539126739623 -1196.197159618341 0 0 0
5523 369 3 -1.5 -2609.8915801069297 -552.593282859952 -1164.236248102733 0 0 0
1608 108 3 -1.5 -1526.0121664334456 -589.333040657883 -1161.8598186256495 0 0 0
1615 108 10 1 -1423.5382680096843 -585.9873630924953 -1133.3941990614867 0 0 0
923 62 8 0 -913.7549233459849 -588.6848325117278 -1172.770391954323 0 0 0
1801 121 1 0 -2535.351003353751 -499.3292761127554 -1153.44104555954 0 0 0
252 17 12 0 -1280.9251040047998 -486.587335353223 -1137.7348758394724 0 0 0
243 17 3 -1.5 -1333.3324155005296 -489.8243528964043 -1128.4532323987432 0 0 0
649 44 4 0 -24.95781236257357 -75.43825269107835 -1129.6682020153132 0 0 0
5070 338 15 0 -687.190103081952 -1.5807008044444426 -1160.7326367843227 0 0 0
651 44 6 -0.5 -129.2898850385467 -21.849919430457565 -1185.0425783097196 0 0 0
659 44 14 -1.5 -96.41676162461127 -23.41136483285595 -1155.2065643594885 0 0 0
647 44 2 0 -52.95661962574463 -45.06149166867539 -1174.1642722770562 0 0 0
3125 209 5 0 -1132.0893972634701 17.72593950832353 -1133.2505584297246 0 0 0
3128 209 8 0 -1091.4151302783855 93.81565151500486 -1158.5453502476773 0 0 0
3121 209 1 0 -1041.2377736519386 89.47889382751308 -1183.7923341280664 0 0 0
1713 115 3 -1.5 -418.82122436589265 278.26743984594566 -1191.6498121971354 0 0 0
1722 115 12 0 -370.11578288496884 278.92109716446834 -1190.272183562958 0 0 0
1720 115 10 1 -315.9710140899586 322.52700715218657 -1187.463724181176 0 0 0
1717 115 7 2 -267.4214205598402 355.93329359884154 -1168.8005418243613 0 0 0
1721 115 11 1 -229.69994532674252 390.97333822672226 -1150.9538683472445 0 0 0
1719 115 9 0 -177.47197176537958 432.5802797380272 -1145.6596653259817 0 0 0
1291 87 1 0 -1010.2627754441937 508.5609907665168 -1158.0494747717917 0 0 0
1716 115 6 -0.5 -160.022443785697 483.58196247033317 -1145.9585742481984 0 0 0
1724 115 14 -1.5 -129.11772633241304 512.1774491096306 -1159.8893650981258 0 0 0
1056 71 6 -0.5 -354.2742332857482 541.4858396067362 -1194.0558982817083 0 0 0
1064 71 14 -1.5 -314.81348392352334 562.1422486844434 -1186.3038688279541 0 0 0
5168 345 8 0 -1939.976444121236 642.4726077518756 -1149.4444421883409 0 0 0
5161 345 1 0 -1869.7959802415323 649.8888777571242 -1185.9655455320192 0 0 0
1416 95 6 -0.5 -1438.4123163515178 608.6033394454151 -1180.7858286805797 0 0 0
1425 95 15 0 -1473.7457562866296 639.840175895671 -1199.2457356559444 0 0 0
1424 95 14 -1.5 -1397.2267822634071 624.1468431677272 -1174.0069804521895 0 0 0
1412 95 2 0 -1442.4121183381312 719.7648226418094 -1167.2573832010164 0 0 0
4688 313 8 0 -2933.368548292626 797.1455251313947 -1197.1263618086818 0 0 0
1414 95 4 0 -1398.1943858569832 754.6058195607472 -1158.0555917161805 0 0 0
4685 313 5 0 -2918.839750178899 867.6096424345624 -1197.7974752156395 0 0 0
4692 313 12 0 -2861.1690273531317 917.3240139570723 -1199.3803824431402 0 0 0
4690 313 10 1 -2826.3390211180426 905.3859705700418 -1149.5428529418773 0 0 0
4653 311 3 -1.5 -1354.5723241818303 958.4454748474024 -1197.1128746324334 0 0 0
4893 327 3 -1.5 -845.7292075583916 1101.2650118865752 -1186.2672839529514 0 0 0
4095 273 15 0 -853.0422694939898 1109.3200502510513 -1132.4601424969312 0 0 0
4902 327 12 0 -811.6488772641125 1123.9595847970502 -1163.0337180465551 0 0 0
4084 273 4 0 -731.9294040702865 1110.2450178988147 -1128.9162841225605 0 0 0
4089 273 9 0 -905.8450853049198 1129.8605193229002 -1188.282061242772 0 0 0
4086 273 6 -0.5 -857.7088704244292 1148.1995693170315 -1189.4612098400407 0 0 0
4900 327 10 1 -750.0344613900857 1147.4347379585486 -1152.9585209330976 0 0 0
5634 376 9 0 -750.1601599933053 1182.4877480216005 -1180.4003567129664 0 0 0
4180 279 10 1 -713.6958615789367 1149.1396940208087 -1192.4338174257098 0 0 0
5383 359 13 -0.5 -685.3571425004669 1188.1007683445919 -1188.445075034623 0 0 0
5631 376 6 -0.5 -699.532778899295 1177.425279443209 -1158.5688276391027 0 0 0
4897 327 7 2 -692.5033770497593 1170.383938538441 -1152.4467824308892 0 0 0
4177 279 7 2 -657.7733476665541 1155.6228411705733 -1169.2817555838894 0 0 0
5639 376 14 -1.5 -665.2393266503018 1195.0538502021673 -1137.4778426474873 0 0 0
4181 279 11 1 -610.3092296466593 1167.9213251206138 -1148.2755524086158 0 0 0
4901 327 11 1 -645.2073791003464 1197.1243012366597 -1153.5209015157166 0 0 0
4179 279 9 0 -549.4806577575665 1182.905763971425 -1129.9562609062987 0 0 0
4176 279 6 -0.5 -496.08474402726773 1199.581852909154 -1132.359549668792 0 0 0
5385 359 15 0 -316.6259600094048 1197.3082875598675 -1146.9807888004393 0 0 0
5372 359 2 0 -250.99303972547273 1173.7902964757716 -1164.6272677617285 0 0 0
5374 359 4 0 -209.91990299656237 1153.3034513395828 -1156.1562987531813 0 0 0
4360 291 10 1 -2131.6049442529356 1253.890959881516 -1146.0148643711384 0 0 0
4237 283 7 2 -2070.339898231423 1268.5027332981153 -1186.9985281065715 0 0 0
4357 291 7 2 -2075.3866137309233 1232.5874549222262 -1159.9778402347283 0 0 0
4361 291 11 1 -2025.6975778534654 1213.4165419524809 -1168.3686387717087 0 0 0
4359 291 9 0 -1962.8711615923105 1203.7009541685068 -1178.5286288502475 0 0 0
4241 283 11 1 -2018.9791941324474 1253.1223254113802 -1192.1571009346037 0 0 0
4365 291 15 0 -1913.8167512973287 1200.451094065819 -1133.064587025222 0 0 0
4356 291 6 -0.5 -1909.0318360746871 1211.3709675061093 -1185.3329207634006 0 0 0
5640 376 15 0 -725.5291098810203 1215.8755687888595 -1147.783349147805 0 0 0
4273 285 13 -0.5 -659.9468194640228 1221.6219199288607 -1185.5407099603774 0 0 0
4263 285 3 -1.5 -629.0205841331001 1250.1408237806713 -1194.5648970756595 0 0 0
5382 359 12 0 -605.2133177146583 1206.003120745791 -1183.081308773257 0 0 0
5375 359 5 0 -659.4982243670219 1273.1812506883105 -1147.9018758015468 0 0 0
4272 285 12 0 -581.2998019169003 1249.9330977597156 -1196.7148033967583 0 0 0
5380 359 10 1 -545.5762874912191 1219.8252205827926 -1168.1848296731043 0 0 0
4899 327 9 0 -584.7766489718852 1222.2154700589829 -1138.5877164853812 0 0 0
4896 327 6 -0.5 -528.470296877362 1230.0156719242282 -1142.2208180303455 0 0 0
4270 285 10 1 -523.913240867854 1263.8980259648563 -1167.9329145465786 0 0 0
5377 359 7 2 -485.06019662427735 1231.1371222662322 -1162.8498991492957 0 0 0
4267 285 7 2 -465.5599315121554 1270.8071285338517 -1147.1320436769508 0 0 0
4184 279 14 -1.5 -464.7487672463716 1230.2232211803291 -1126.6517304583233 0 0 0
4904 327 14 -1.5 -490.6626644605361 1244.8395101442277 -1125.559672894786 0 0 0
5381 359 11 1 -431.2129198927008 1235.690470902785 -1161.5427833083504 0 0 0
5379 359 9 0 -366.36561337059834 1239.930280364239 -1142.7817158794626 0 0 0
5376 359 6 -0.5 -312.39553136122424 1250.0185403840403 -1153.0993592521513 0 0 0
5384 359 14 -1.5 -270.36220546887836 1256.016388346098 -1140.8082939927806 0 0 0
4243 283 13 -0.5 -2264.911386206274 1333.4813556862432 -1160.4865814392215 0 0 0
4362 291 12 0 -2186.446299694073 1281.9937742729846 -1138.791891529108 0 0 0
4233 283 3 -1.5 -2226.997330759991 1316.586621882905 -1150.5237877005002 0 0 0
4242 283 12 0 -2187.946220410083 1306.2591603526928 -1181.9057044356312 0 0 0
4240 283 10 1 -2128.037514499374 1288.7969069595067 -1182.0634285807855 0 0 0
4271 285 11 1 -416.6425474304362 1275.9454436918238 -1125.353107384901 0 0 0
5359 358 4 0 -2967.530757851918 1353.5165113293951 -1128.8266641503774 1 0 0
4355 291 5 0 -2183.2854185114543 1368.9537538663878 -1180.637388014344 0 0 0
3766 252 1 0 -1895.6320833098441 -1077.027159859619 -1114.910527268702 0 0 0
2665 178 10 1 -191.57691821289177 -855.7251195737372 -1057.5717443372837 0 0 0
2662 178 7 2 -150.745248839341 -840.5747437347774 -1100.684167220693 0 0 0
5525 369 5 0 -2658.9447879756717 -569.023064036671 -1083.3405012632202 0 0 0
5532 369 12 0 -2585.5333488169517 -557.0058271088673 -1120.508440377199 0 0 0
5530 369 10 1 -2545.809414302087 -531.3110442528432 -1078.8011741170137 0 0 0
1612 108 7 2 -1371.5251149822686 -555.0570424503287 -1119.7249334215683 0 0 0
1607 108 2 0 -1176.0090074853379 -538.1111797273774 -1063.4905673380936 0 0 0
1609 108 4 0 -1123.577671193687 -552.6156630573344 -1060.431063093972 0 0 0
920 62 5 0 -917.6295474659894 -544.0521880971139 -1082.965603534973 0 0 0
253 17 13 -0.5 -1362.500971239288 -518.0291721109691 -1114.767587690101 0 0 0
1616 108 11 1 -1328.5534911494763 -523.7404193192791 -1107.8615818054318 0 0 0
1614 108 9 0 -1278.8328053301955 -487.67680836377133 -1078.2986694325252 0 0 0
250 17 10 1 -1217.323298216087 -486.9610521270391 -1114.2656174244694 0 0 0
1611 108 6 -0.5 -1233.9354687716798 -462.49242426051865 -1075.789075321764 0 0 0
1620 108 15 0 -1227.5329716550796 -506.40141142055836 -1063.0703851727083 0 0 0
247 17 7 2 -1158.0812724714363 -479.48374379454805 -1098.1628589126117 0 0 0
1619 108 14 -1.5 -1192.4087313851696 -459.13779592498065 -1091.1463950853765 0 0 0
251 17 11 1 -1108.120227733235 -466.54902034184056 -1086.0170394799645 0 0 0
249 17 9 0 -1049.4209955343672 -448.7278731416461 -1060.5160413642304 0 0 0
246 17 6 -0.5 -1001.3010696593121 -423.079988739026 -1051.4931950528667 0 0 0
930 62 15 0 -640.7028503883722 -372.6790999315254 -1079.8075413604909 0 0 0
917 62 2 0 -590.7291656511945 -364.76660182804875 -1089.742472815136 0 0 0
919 62 4 0 -529.7295387538851 -346.1018484451137 -1071.6074503469142 0 0 0
5443 363 13 -0.5 -535.8281517997693 -304.2397103082896 -1088.530818066357 0 0 0
5641 377 1 0 -1473.9325260374783 -265.200933796875 -1083.0619350914153 0 0 0
5433 363 3 -1.5 -502.624700162324 -298.3902087073072 -1062.1330166565435 0 0 0
3384 226 9 0 -497.5679688834196 -252.2278084972198 -1063.68458820268 0 0 0
3381 226 6 -0.5 -450.4595619303679 -233.69128046810843 -1076.4093064322 0 0 0
3389 226 14 -1.5 -417.74102434817326 -205.10286345299804 -1065.8555257012626 0 0 0
3133 209 13 -0.5 -1209.474509311931 -102.65454070742554 -1057.160029983235 0 0 0
3123 209 3 -1.5 -1184.0739050011898 -76.07310985526576 -1079.6653269436438 0 0 0
3130 209 10 1 -1074.9633374633631 -76.89499723661567 -1056.7608015383423 0 0 0
3132 209 12 0 -1136.6590313517165 -61.90290101045779 -1074.0539517493487 0 0 0
5068 338 13 -0.5 -989.7705894411001 -71.88866214291964 -1055.6300325686352 0 0 0
5066 338 11 1 -741.0307546503175 -40.29931494926133 -1056.4966681974036 0 0 0
5064 338 9 0 -684.5840765987806 -27.149549532561654 -1088.8625702526554 0 0 0
5061 338 6 -0.5 -640.7489581271706 0.3573111255247131 -1108.0229763199332 0 0 0
5069 338 14 -1.5 -598.5851830675471 2.7892859649852713 -1122.0646338099343 0 0 0
1003 67 13 -0.5 -1187.3210414505797 278.24304408966447 -1095.6946310723881 0 0 0
993 67 3 -1.5 -1153.0748475508062 257.26085232628594 -1079.155513934226 0 0 0
1298 87 8 0 -1017.134703857598 479.0105473903373 -1095.822805501945 0 0 0
1725 115 15 0 -165.59065760678607 479.63525961407964 -1111.1978122551411 0 0 0
1712 115 2 0 -145.94772570808726 570.7926846393336 -1109.1609941743206 0 0 0
5165 345 5 0 -2023.0723131693283 643.5730609343424 -1097.3795275094121 0 0 0
1714 115 4 0 -155.28856117492214 631.1652625472442 -1110.1248770044997 0 0 0
4066 272 1 0 -2758.225815857879 811.1279857447329 -1089.4840538815056 0 0 0
4687 313 7 2 -2793.851671206874 899.6209412626343 -1097.3723153921587 0 0 0
4691 313 11 1 -2770.6568834068057 889.7753695115057 -1050.6258665685275 0 0 0
4073 272 8 0 -2737.780124094583 850.4033569312578 -1055.5335928200047 0 0 0
4895 327 5 0 -848.5278994375761 1083.2947464971824 -1067.8700515246987 0 0 0
4082 273 2 0 -788.7735739800969 1092.038932963677 -1116.5307035922328 0 0 0
4185 279 15 0 -518.9465036810165 1177.8592536871884 -1075.9955799661857 0 0 0
4352 291 2 0 -1866.7615940722362 1210.4797396365298 -1054.3239260213063 0 0 0
2183 146 8 0 -822.7068400340459 1264.3768384871205 -1056.2472633642053 0 0 0
5627 376 2 0 -666.9569336823587 1264.6272448297243 -1091.582540891977 0 0 0
4905 327 15 0 -555.2086262058929 1235.2972030326875 -1095.5101356920034 0 0 0