LAMMPS data file via write_data, version 27 Jun 2024, timestep = 15680000, units = real

5730 atoms
15 atom types
5544 bonds
16 bond types
5730 angles
15 angle types

-3000 3000 xlo xhi
-1500 1500 ylo yhi
-1500 1500 zlo zhi

Masses

1 241.19
2 73.54000000000001
3 330.71
4 235.16
5 68.06999999999999
6 353.53
7 223.38
8 41.1
9 216.91
10 155.15
11 147.32
12 264.65
13 300.8
14 326.05
15 85.20999999999999

Pair Coeffs # lj/cut/coul/debye/gpu

1 0.71637 40.7505
2 0.665709 48.1397
3 1.15033 39.2216
4 0.726774 43.8077
5 0.514724 53.3428
6 1.17127 41.7847
7 1.2256 38.5601
8 0.675431 54.5696
9 1.26117 43.78
10 0.939007 42.5209
11 0.960667 41.1825
12 1.30988 48.0761
13 1.36645 37.7114
14 1.35529 39.2179
15 0.592003 47.2602

Bond Coeffs # harmonic

1 0.003 59.228
2 0.008 56.48
3 0.001 69.324
4 3.207 42.88
5 0.11 49.807
6 0.002 74.968
7 0.001 91.635
8 0.145 54.383
9 2.709 44.406
10 1.71 61.679
11 1.625 54.051
12 0.207 66.185
13 0.002 64.76
14 0.079 63.886
15 0.2 40
16 0.2 40

Angle Coeffs # harmonic

1 11.427 158.273
2 50.464 132.042
3 8.207 156.514
4 92.705 149.394
5 100 174.44
6 3.15 145.53
7 48.938 159.031
8 17.401 129.945
9 15.735 56.441
10 60 172.254
11 60.285 168.396
12 11.83 99.091
13 150 107.995
14 27.746 149.925
15 7.483 160.775

Atoms # full

2411 161 11 1 -2227.232885420859 -1465.0080981762917 -1483.0355623374885 0 0 0
2555 171 5 0 -1514.3247076833875 -1312.3554401058293 -1478.1374811302185 0 0 1
2559 171 9 0 -1238.7534176525714 -1280.162898430786 -1429.6977670597935 0 0 1
2565 171 15 0 -1202.655923082049 -1278.7436504516293 -1468.95530254129 0 0 1
3780 252 15 0 -1725.7267725704808 -1242.479007093444 -1491.2724413494943 0 0 0
2556 171 6 -0.5 -1192.114520536917 -1250.5436928724102 -1426.3610270787 0 0 1
3776 252 11 1 -1814.0691293139341 -1194.2788400054471 -1435.126801349628 0 0 0
3774 252 9 0 -1755.276138299829 -1199.5586953567251 -1465.5611064006823 0 0 0
1806 121 6 -0.5 -2521.189588872637 -604.5407854246645 -1441.211438709454 0 0 0
1814 121 14 -1.5 -2509.6288715214214 -628.1469362086082 -1477.3877675423819 0 0 0
965 65 5 0 -2830.7504639429253 -379.74246033918536 -1437.730999466762 0 0 0
2930 196 5 0 -2549.2731103159126 -375.94821172528054 -1429.4877896668627 0 0 0
2933 196 8 0 -2530.9033731372824 -378.6958297027545 -1495.5840579130397 0 0 0
968 65 8 0 -2862.5140908482567 -370.0637841874461 -1490.0735179907517 0 0 0
2586 173 6 -0.5 -1675.6488069444888 -319.4302355343004 -1481.9558103817026 0 0 1
2594 173 14 -1.5 -1697.0326698251176 -317.0280539260483 -1443.6890342573506 0 0 1
962 65 2 0 -2501.096362514509 -253.06265058374993 -1449.175339481293 0 0 0
2595 173 15 0 -1649.0995777148748 -276.7652687269228 -1450.936270135942 0 0 1
653 44 8 0 -327.92912479808183 -233.41902591583974 -1446.978482146005 0 0 0
646 44 1 0 -321.430066835479 -293.05007941021415 -1443.0273175740856 0 0 0
964 65 4 0 -2509.0306862237294 -223.6251741068261 -1495.4784197638658 0 0 0
1067 72 2 0 -377.80041354263824 -153.09639131803587 -1498.0935535522874 0 0 1
1069 72 4 0 -350.82348702979584 -121.61460073679163 -1456.9077619379948 0 0 1
658 44 13 -0.5 -300.8778030844534 -61.11861730081103 -1427.7363135062958 0 0 0
4928 329 8 0 -1936.5432358956693 352.0944556488137 -1495.1781461950413 0 0 0
4925 329 5 0 -1925.1265059296343 422.43612949669847 -1465.7515927413792 0 0 0
1055 71 5 0 -583.9626017256704 422.1395241599671 -1476.089933923754 0 0 0
4932 329 12 0 -1939.5828651358192 504.78287210935696 -1471.0632006844248 0 0 0
4480 299 10 1 -1964.4856703589114 1007.6837331788381 -1493.1984167915693 0 0 0
4477 299 7 2 -1939.5614785941275 1037.3530841411532 -1445.3575523119691 0 0 0
2406 161 6 -0.5 -2263.6302688891187 -1458.4874020481338 -1372.8831143593839 0 0 0
2409 161 9 0 -2249.640764846703 -1449.7917957201646 -1423.521320943127 0 0 0
2415 161 15 0 -2212.1579264850684 -1439.81220634409 -1363.9235746068248 0 0 0
2553 171 3 -1.5 -1504.0903835360293 -1384.7398495924604 -1379.4925490739465 0 0 1
2562 171 12 0 -1468.0885812239114 -1361.736602549727 -1399.53220839255 0 0 1
2560 171 10 1 -1408.5365271945298 -1335.3952575134192 -1394.4653152181977 0 0 1
2557 171 7 2 -1350.2334630779626 -1318.7170177513374 -1405.940994136614 0 0 1
2561 171 11 1 -1298.8608079566543 -1306.6640623725284 -1413.4689766095348 0 0 1
2564 171 14 -1.5 -1150.4296729469231 -1246.7832477589131 -1411.7067452200504 0 0 1
3778 252 13 -0.5 -2059.700951226116 -1192.3489072058167 -1368.8780043811423 0 0 0
3768 252 3 -1.5 -2018.2524194813539 -1195.6058763337444 -1357.0389890402694 0 0 0
3777 252 12 0 -1981.1094314413024 -1174.9044141096788 -1379.144126767968 0 0 0
3775 252 10 1 -1923.3860659188551 -1187.9563043834164 -1399.3386772717893 0 0 0
3772 252 7 2 -1865.0663430359245 -1195.7310337235008 -1418.5196876922585 0 0 0
1802 121 2 0 -2432.2668431304614 -714.0087722315748 -1354.133219547031 0 0 0
1804 121 4 0 -2394.2197764972507 -740.4373256176109 -1365.0857180664464 0 0 0
1815 121 15 0 -2507.784164136834 -652.105046544854 -1362.2173684020688 0 0 0
1809 121 9 0 -2555.6693088834427 -575.8225837420439 -1410.4456599625967 0 0 0
1811 121 11 1 -2589.166231436022 -525.8735407595673 -1382.0931225689003 0 0 0
241 17 1 0 -1224.3198173134706 -570.3465509932591 -1372.8282968682188 0 0 0
973 65 13 -0.5 -2843.193872534335 -488.09151132659383 -1365.1001497568266 0 0 0
963 65 3 -1.5 -2804.4976386480785 -472.252205503117 -1375.0757057161559 0 0 0
1807 121 7 2 -2602.4289405368495 -479.39110182225886 -1358.1517802539067 0 0 0
972 65 12 0 -2780.809741388538 -427.3246887750197 -1367.7297748459055 0 0 0
970 65 10 1 -2725.692307246327 -394.4289364571822 -1355.341481246623 0 0 0
975 65 15 0 -2532.2996749286017 -293.7859898961246 -1367.320218735554 0 0 0
2582 173 2 0 -1675.2074922985285 -280.7213864696878 -1378.1013525922624 0 0 1
650 44 5 0 -335.259488724501 -182.18165521241934 -1395.567175996714 0 0 0
657 44 12 0 -288.51423608326616 -83.45213724625393 -1350.0619436171355 0 0 0
648 44 3 -1.5 -298.0502222587436 -53.051793548639374 -1385.6652286880515 0 0 0
1053 71 3 -1.5 -613.857515968466 351.3791350542344 -1373.6254645330037 0 0 0
1063 71 13 -0.5 -610.3111543266705 324.57389965635156 -1406.9893130150524 0 0 0
1062 71 12 0 -597.682774789962 396.2819002398801 -1364.5062973609424 0 0 0
1423 95 13 -0.5 -1552.2062360111597 524.7565723669002 -1354.953658257948 0 0 0
4930 329 10 1 -1918.1300194198902 529.2645261355073 -1414.3432686920262 0 0 0
4927 329 7 2 -1899.4219932528333 558.6023967663386 -1362.7980347379566 0 0 0
4481 299 11 1 -1911.4007746464545 1055.670260546756 -1402.8434661064903 0 0 0
4479 299 9 0 -1863.9822764366668 1068.0685311082416 -1358.3540032696294 0 0 0
2414 161 14 -1.5 -2283.6459034368513 -1481.382773512584 -1340.9285454283715 0 0 0
2402 161 2 0 -2188.2008498637124 -1419.872501674303 -1305.4583772117996 0 0 0
2404 161 4 0 -2154.7575754152026 -1398.1037152322394 -1284.4687696251533 0 0 0
2563 171 13 -0.5 -1505.2979566226525 -1416.5296966631445 -1349.9985954573597 0 0 1
3616 242 1 0 -340.9839421282911 -1256.6408216912216 -1343.2529377117096 0 0 0
3623 242 8 0 -354.338901033081 -1264.3146996195953 -1280.7204161086886 0 0 0
3770 252 5 0 -1976.7853873941633 -1091.3814618303934 -1319.3132919088132 0 0 0
3773 252 8 0 -1958.135378858029 -1055.9959656589967 -1284.9071140265203 0 0 0
248 17 8 0 -1226.2755955151977 -531.0689178648603 -1340.3591072263926 0 0 0
1609 108 4 0 -1134.463240253723 -513.0762271308321 -1326.509202371071 0 0 0
1810 121 10 1 -2606.1308566765156 -424.5483280821959 -1330.2831839198955 0 0 0
2938 196 13 -0.5 -2636.291365515985 -365.6053940741626 -1329.9636032882872 0 0 0
967 65 7 2 -2673.5040536627157 -363.1097374407629 -1346.4378460178164 0 0 0
971 65 11 1 -2625.9270288600756 -340.59741695558967 -1335.1667265306455 0 0 0
1812 121 12 0 -2606.000164675095 -368.2859927743423 -1295.6065125871353 0 0 0
2928 196 3 -1.5 -2600.881579604369 -342.77394633755534 -1336.69580443181 0 0 0
1803 121 3 -1.5 -2579.6338737687847 -328.89385771942875 -1285.9774958433009 0 0 0
2937 196 12 0 -2555.3901904598174 -350.9560293156231 -1348.7637652274625 0 0 0
969 65 9 0 -2569.5504974710325 -303.4815262961941 -1326.8091086301097 0 0 0
2935 196 10 1 -2498.6437540448937 -329.57598895217734 -1335.5571723712906 0 0 0
1813 121 13 -0.5 -2538.4152578295293 -317.4899378960874 -1290.3967288796275 0 0 0
2932 196 7 2 -2449.176468253671 -301.75153306020485 -1311.8176998203633 0 0 0
966 65 6 -0.5 -2517.926526962933 -292.81542571590023 -1321.8008721897868 0 0 0
974 65 14 -1.5 -2481.3682094392802 -286.3526576286369 -1296.9528788648431 0 0 0
2936 196 11 1 -2406.5071591511523 -273.5920730760961 -1298.318443549601 0 0 0
2934 196 9 0 -2344.3949506029676 -248.81817551510937 -1293.711685986244 0 0 0
2584 173 4 0 -1702.624951897523 -263.36473873231046 -1342.6918413749304 0 0 1
2940 196 15 0 -2320.4602768213604 -198.17553638684564 -1314.37451498174 0 0 0
2939 196 14 -1.5 -2263.4845711745875 -194.19729256431452 -1296.9402828835184 0 0 0
2927 196 2 0 -2285.339156746193 -181.16246333888054 -1336.1114502294824 0 0 0
2931 196 6 -0.5 -2301.0896399464405 -213.7525571431865 -1282.6897376923976 0 0 0
2929 196 4 0 -2229.1071735153378 -177.26728346245983 -1334.4786728828908 0 0 0
655 44 10 1 -266.11700616835776 -99.05682076957677 -1292.5363170124206 0 0 0
5059 338 4 0 -665.7924477224457 77.60500639224973 -1291.0058329770416 0 0 0
1718 115 8 0 -416.07107106710623 373.5346755662491 -1333.3948739215673 0 0 0
1711 115 1 0 -404.31970485211434 325.2584491516414 -1320.5458225658197 0 0 0
1060 71 10 1 -548.4169200819903 428.29209020335105 -1336.6503270894207 0 0 0
1715 115 5 0 -436.0965503179536 423.5170866704298 -1306.4442043221984 0 0 0
1057 71 7 2 -501.24781215722464 451.8412800203775 -1303.2780374766094 0 0 0
1723 115 13 -0.5 -494.56088967830925 490.8408510996494 -1318.3223703659326 0 0 0
1713 115 3 -1.5 -461.1207683654339 503.154284558941 -1294.5721538383812 0 0 0
1722 115 12 0 -417.914267775574 479.5942067985656 -1282.4774277993856 0 0 0
4931 329 11 1 -1882.0577023865822 590.7380223918385 -1322.3267886221604 0 0 0
4922 329 2 0 -1735.0016655160791 578.5262404693015 -1290.3095073493814 0 0 0
4924 329 4 0 -1703.9105141850955 532.2777749041152 -1290.5088841995675 0 0 0
1413 95 3 -1.5 -1588.177453976309 546.5656349884638 -1344.5974742589856 0 0 0
1422 95 12 0 -1590.757531891064 584.1976092905574 -1313.5206355173032 0 0 0
1054 71 4 0 -249.57291702342528 543.121798078402 -1278.251253420267 0 0 0
4929 329 9 0 -1844.2922829681354 626.563970793474 -1281.6569082602484 0 0 0
1411 95 1 0 -1786.5292637385583 663.0707152870823 -1325.7116746772454 0 0 0
1418 95 8 0 -1728.5110795613848 609.49254181606 -1336.5531401198273 0 0 0
1415 95 5 0 -1675.672988081462 601.2612294141305 -1320.4610282174792 0 0 0
4081 273 1 0 -906.7512503058387 728.5365515871705 -1303.4454917555693 0 0 0
4663 311 13 -0.5 -1239.8948270557894 751.8966989095089 -1304.9508062113762 0 0 0
4653 311 3 -1.5 -1199.8688677390846 766.9534580416431 -1300.0194352663384 0 0 0
4662 311 12 0 -1180.507739427912 810.2480630880958 -1307.2522318223128 0 0 0
4088 273 8 0 -925.995356769974 791.4788207837859 -1307.796739434118 0 0 0
4474 299 4 0 -1788.6719866361702 884.1837587774011 -1298.9782168153781 0 0 0
4660 311 10 1 -1129.2382734742146 840.6361198193234 -1303.3100022350316 0 0 0
4657 311 7 2 -1079.6566267492908 875.9802516537958 -1295.7040130963558 0 0 0
4085 273 5 0 -994.6471560040371 846.2485233252334 -1288.245630241119 0 0 0
4354 291 4 0 -2079.3230051030027 922.1859269391323 -1320.5248913069543 0 0 0
4352 291 2 0 -2035.518351862964 972.2866778547689 -1308.8042259967851 0 0 0
4472 299 2 0 -1798.0823387816597 943.4351059386158 -1301.3213195249157 0 0 0
4093 273 13 -0.5 -1102.8198925138354 908.3796580890332 -1290.6403665917283 0 0 0
4661 311 11 1 -1042.832834040838 915.0386791843355 -1288.1975278912878 0 0 0
4485 299 15 0 -1837.8599516077536 1001.504358567824 -1320.1067636490814 0 0 0
4234 283 4 0 -1834.8122436601618 1049.1545409846474 -1309.488878083264 0 0 0
4365 291 15 0 -2016.8940099185663 1064.9917146193557 -1295.3289849961561 0 0 0
4356 291 6 -0.5 -1989.4934214921416 1119.815190194253 -1324.8471897003794 0 0 0
4364 291 14 -1.5 -1952.373695009816 1098.9540987597297 -1336.6778257734018 0 0 0
4476 299 6 -0.5 -1813.1628932459723 1083.819071033426 -1341.4174222302888 0 0 0
4232 283 2 0 -1859.1171250497382 1083.011163260853 -1300.3459165781921 0 0 0
4484 299 14 -1.5 -1773.3736450982312 1102.2907747270667 -1346.0119675267938 0 0 0
4359 291 9 0 -2022.7394629597507 1136.8513416636972 -1284.2404309225567 0 0 0
4171 279 1 0 -778.6740601308595 1310.1974467119442 -1290.901964620424 0 0 0
3617 242 2 0 -4.612595557314754 -1476.6146843531217 -1238.2785768110034 0 0 0
3620 242 5 0 -280.35323302936837 -1274.692140923762 -1228.405215984437 0 0 0
3766 252 1 0 -1931.5046468420778 -1000.9573683826396 -1264.1806455243427 0 0 0
1607 108 2 0 -1146.8673144462805 -538.1031360190777 -1274.4598491739682 0 0 0
1620 108 15 0 -1138.267950694001 -540.6490645924348 -1200.9863423935487 0 0 0
2656 178 1 0 -324.33156677918697 -583.3040769063937 -1209.1485313526025 0 0 0
245 17 5 0 -1209.8614118770968 -521.6329589364836 -1269.5049255588926 0 0 0
923 62 8 0 -902.5598622694858 -464.5257507391398 -1251.5503045533708 0 0 0
916 62 1 0 -937.2426819790151 -417.41757279665654 -1270.7530685675454 0 0 0
1805 121 5 0 -2657.395880374699 -366.04343357020014 -1249.3115653323875 0 0 0
652 44 7 2 -239.15004935463352 -120.5321360968931 -1242.4820709993132 0 0 0
656 44 11 1 -210.80775320699874 -141.87903515375365 -1201.911887530077 0 0 0
5057 338 2 0 -704.7638298209596 55.76637102127722 -1251.4441815761916 0 0 0
1061 71 11 1 -461.3268996859969 466.4503522000026 -1271.576479181101 0 0 0
1059 71 9 0 -410.9759614495716 498.6886043314923 -1238.4286463193107 0 0 0
1720 115 10 1 -361.8571237133478 471.26762926889666 -1250.0972819899478 0 0 0
1717 115 7 2 -305.65467248025624 468.13704297995923 -1224.5300069124814 0 0 0
1056 71 6 -0.5 -361.25503954232494 511.7325145673169 -1223.3804993452159 0 0 0
1064 71 14 -1.5 -322.1152770642213 498.98523849298067 -1206.6610559068276 0 0 0
1721 115 11 1 -257.38713783890887 457.5871724373816 -1202.9603154548336 0 0 0
1725 115 15 0 -166.55664959422336 471.35220600125496 -1213.2127865656744 0 0 0
1712 115 2 0 -111.91253904859614 524.7105889821315 -1236.0627258324705 0 0 0
1065 71 15 0 -367.787030089713 554.137227493979 -1256.3598295080585 0 0 0
1052 71 2 0 -299.3560288838709 558.711735961312 -1263.5162963449006 0 0 0
1714 115 4 0 -50.25694302071184 550.2709848120614 -1237.2875408239338 0 0 0
4926 329 6 -0.5 -1826.41432303467 657.362899747497 -1244.0739830280493 0 0 0
4935 329 15 0 -1801.53416525762 611.8812629322323 -1268.081300897748 0 0 0
4934 329 14 -1.5 -1826.9620433715934 664.6407765806838 -1200.506398411939 0 0 0
1420 95 10 1 -1572.6498758222986 621.8654200315794 -1264.3081456940545 0 0 0
1417 95 7 2 -1561.153743059805 664.9607564310238 -1221.5732258734306 0 0 0
4655 311 5 0 -1230.683898576023 841.4385117726101 -1236.6743717556737 0 0 0
4658 311 8 0 -1265.2220130128635 899.5597639184091 -1200.446730311154 0 0 0
4083 273 3 -1.5 -1079.0162928516854 888.9379194305251 -1260.390427833395 0 0 0
4092 273 12 0 -1032.8741982031377 896.7271987332946 -1240.2711989804989 0 0 0
1414 95 4 0 -1626.0722070793997 905.8689735553487 -1233.8295699723683 0 0 0
4659 311 9 0 -1005.6919083686595 960.9319170529141 -1258.289999137941 0 0 0
4090 273 10 1 -991.6057611218715 938.2085537613345 -1215.5127244735777 0 0 0
5638 376 13 -0.5 -978.3895817507438 986.0311990862272 -1221.549278231458 0 0 0
4656 311 6 -0.5 -969.0643688292284 981.9190913830374 -1223.846267905266 0 0 0
5628 376 3 -1.5 -957.5832481070441 1022.5240214268301 -1232.0147965872816 0 0 0
4665 311 15 0 -952.2263625480638 989.4285918150722 -1266.4053327632732 0 0 0
4652 311 2 0 -916.2444759232621 1027.5262530933721 -1252.4595576449915 0 0 0
4664 311 14 -1.5 -944.0754449827753 1016.0223506406377 -1211.3454893528244 0 0 0
4244 283 14 -1.5 -2007.7409768417165 1061.671533411526 -1246.4623689960067 0 0 0
4236 283 6 -0.5 -2001.2194471972318 1105.4379351936827 -1248.062606576509 0 0 0
5637 376 12 0 -946.3636582538568 1062.4043768052302 -1205.384302885668 0 0 0
4654 311 4 0 -874.7672014463351 1060.0791682634392 -1222.8573165092048 0 0 0
4173 279 3 -1.5 -858.2050620221423 1101.495346613817 -1206.998142419706 0 0 0
4903 327 13 -0.5 -858.2520030576674 1100.593898345867 -1203.069177419468 0 0 0
4182 279 12 0 -813.4932261508924 1122.430411758668 -1203.6404486357978 0 0 0
4361 291 11 1 -2054.002816862621 1179.1229016203013 -1244.1843711982706 0 0 0
4239 283 9 0 -2014.4064236827594 1153.2290264346232 -1231.0884666027493 0 0 0
4245 283 15 0 -1943.7526402907663 1134.680422265073 -1264.0304387506726 0 0 0
4891 327 1 0 -876.7667388748714 1141.8189654505425 -1204.3585717952114 0 0 0
4360 291 10 1 -2124.799087350825 1258.3288977311 -1200.4341943901213 0 0 0
4357 291 7 2 -2088.3230430110493 1214.5008727265126 -1221.512381481081 0 0 0
4241 283 11 1 -2044.305157688902 1211.4434471553338 -1214.1004399402048 0 0 0
4175 279 5 0 -849.6770696987237 1225.815402431647 -1222.5038036171838 0 0 0
4231 283 1 0 -2333.43690041947 1306.6507785095682 -1263.387888704588 0 0 0
4238 283 8 0 -2297.1111124022696 1286.0576576061958 -1214.2406435233584 0 0 0
4178 279 8 0 -839.9461655695969 1305.0131242121922 -1234.5765198399536 0 0 0
4355 291 5 0 -2136.956515368054 1388.1498493265517 -1200.0508288206674 0 0 0
4351 291 1 0 -2200.5402371657315 1452.152497658025 -1271.2803144333107 0 0 0
4358 291 8 0 -2146.7464689350645 1439.5234942120312 -1236.1713896428007 0 0 0
3629 242 14 -1.5 -76.33793231750371 1480.9833501961386 -1222.2521371315893 0 -1 0
3624 242 9 0 -87.86836822340788 -1449.3896552222361 -1160.7221829675455 0 0 0
3621 242 6 -0.5 -77.65728716582535 -1494.7121220728484 -1185.6999048306725 0 0 0
3630 242 15 0 -47.22661408094148 -1461.2241966128863 -1188.0477170906047 0 0 0
3622 242 7 2 -155.46535736619822 -1354.1769426685794 -1144.5407921858805 0 0 0
3626 242 11 1 -116.54456514405285 -1391.2088292611948 -1153.1816888529709 0 0 0
3627 242 12 0 -257.9381056222755 -1276.2031532279864 -1140.3910130538968 0 0 0
3625 242 10 1 -203.06129207839038 -1315.3746408601787 -1137.003984448425 0 0 0
3628 242 13 -0.5 -293.0178612500804 -1202.4501390461373 -1128.8885247617457 0 0 0
2660 178 5 0 -235.8637625856928 -684.9721111849938 -1167.4639218389614 0 0 0
1608 108 3 -1.5 -1455.3044682038042 -618.8535468799633 -1144.7736686068158 0 0 0
1618 108 13 -0.5 -1497.149856957739 -611.5870959012217 -1138.6448911094521 0 0 0
2663 178 8 0 -290.09119729785056 -637.760932564086 -1196.2669876736902 0 0 0
5533 369 13 -0.5 -2673.033153782173 -588.6251706981745 -1156.3873646678242 0 0 0
5523 369 3 -1.5 -2642.700077165151 -558.3247441719004 -1152.8267715879442 0 0 0
1617 108 12 0 -1409.6457705644937 -599.9407970222742 -1131.6791984726415 0 0 0
1615 108 10 1 -1349.7323141441 -591.2544318499946 -1146.3332255479374 0 0 0
253 17 13 -0.5 -1281.1823019377937 -596.1044899144199 -1181.1547137718505 0 0 0
1612 108 7 2 -1288.576283494288 -581.3376709806273 -1147.8980035248708 0 0 0
252 17 12 0 -1212.754570449384 -536.4072568629831 -1187.540092660244 0 0 0
243 17 3 -1.5 -1244.9263828974333 -581.1277498233131 -1197.719161292458 0 0 0
1616 108 11 1 -1234.8515407016528 -576.6644245179075 -1142.9292027686697 0 0 0
1614 108 9 0 -1170.3616086323088 -571.4355452748857 -1154.701237034994 0 0 0
1611 108 6 -0.5 -1120.5199603920505 -552.9129574854047 -1153.3031807028115 0 0 0
1619 108 14 -1.5 -1089.4653497068155 -526.1300939000542 -1169.6656711686257 0 0 0
250 17 10 1 -1158.6117779724946 -514.9306588783048 -1160.5023274313985 0 0 0
247 17 7 2 -1102.3531991061473 -505.8298963433688 -1137.1748931376712 0 0 0
920 62 5 0 -901.4471293283585 -495.9368973172905 -1164.3149400265027 0 0 0
1801 121 1 0 -2635.63396849824 -405.93868335235925 -1147.2545924596234 0 0 0
1808 121 8 0 -2670.7116745310386 -400.9338377372619 -1193.4640992083591 0 0 0
3128 209 8 0 -1141.8382387681806 -182.2168390854217 -1149.0532101313856 0 0 0
3121 209 1 0 -1106.0434982293793 -203.2352987493608 -1186.3683061677127 0 0 0
654 44 9 0 -172.07760767495873 -174.27864483885224 -1160.0851044706346 0 0 0
660 44 15 0 -96.31553940559222 -192.9723995766291 -1169.376155274664 0 0 0
647 44 2 0 -5.03890215091029 -203.02358196939525 -1158.8779313190346 0 0 0
5070 338 15 0 -747.858098402238 48.1940716382176 -1154.3228688979887 0 0 0
5069 338 14 -1.5 -694.201576473107 0.24067336604050782 -1188.932117401791 0 0 0
5061 338 6 -0.5 -724.6379193278344 21.73819040083376 -1164.4538233393528 0 0 0
5161 345 1 0 -2013.427505468006 490.7366194627323 -1125.046467450542 0 0 0
1719 115 9 0 -194.98058633380992 461.08989436382404 -1185.5392972118257 0 0 0
1716 115 6 -0.5 -148.53013890101803 485.92162662255134 -1176.532457375354 0 0 0
1724 115 14 -1.5 -111.3086137817964 494.03674634803895 -1153.5419416621544 0 0 0
4681 313 1 0 -2783.4334654892937 582.5745299362966 -1183.3369722120308 0 0 0
4688 313 8 0 -2824.124111144018 600.4381404902972 -1148.827783458061 0 0 0
1421 95 11 1 -1553.566173959893 704.1964128430241 -1184.5980269441097 0 0 0
1419 95 9 0 -1553.3523913626843 753.7132590448057 -1141.3695890107103 0 0 0
1425 95 15 0 -1584.461507227986 825.7022671002886 -1151.5395319658533 0 0 0
1412 95 2 0 -1606.579975497305 886.688123921183 -1182.8666428339802 0 0 0
4651 311 1 0 -1259.097219778049 962.543675363758 -1174.1771714904303 0 0 0
4087 273 7 2 -946.916135960061 977.6091408446432 -1198.849282908999 0 0 0
4091 273 11 1 -907.2288113134131 1013.4152287320414 -1191.3290175514776 0 0 0
5635 376 10 1 -903.0424715484451 1095.3262276776406 -1184.5009235712494 0 0 0
4183 279 13 -0.5 -886.9156434902081 1105.116397507621 -1176.086886561018 0 0 0
4089 273 9 0 -865.9637244764144 1063.3651117948375 -1176.4532656968627 0 0 0
4086 273 6 -0.5 -848.7561973751068 1114.7067296889647 -1163.9872724147303 0 0 0
4095 273 15 0 -861.4372237218594 1084.8977965306563 -1141.5220096519859 0 0 0
4893 327 3 -1.5 -822.9248779758705 1082.1615545255938 -1188.6854068379616 0 0 0
4902 327 12 0 -788.3531784918276 1096.472557530847 -1151.5590403852873 0 0 0
4180 279 10 1 -757.6470810599176 1123.2616645562275 -1179.1511601254092 0 0 0
4900 327 10 1 -736.1814006781234 1121.1758721543542 -1133.1635979852758 0 0 0
4898 327 8 0 -904.5162732298403 1148.416698867226 -1152.7293575316894 0 0 0
5632 376 7 2 -850.3159785488517 1126.2535069272583 -1175.1644427687243 0 0 0
4094 273 14 -1.5 -816.8066809471028 1144.7565886288646 -1160.2511012607283 0 0 0
5636 376 11 1 -804.4517261167032 1152.2043236487707 -1159.4447762073764 0 0 0
4177 279 7 2 -701.3163133323727 1134.6500636257117 -1156.972838294911 0 0 0
5634 376 9 0 -739.6817452951686 1166.921823903712 -1149.7096736049027 0 0 0
5383 359 13 -0.5 -689.7676983915995 1174.6804643083833 -1148.0667890566392 0 0 0
4181 279 11 1 -650.1513571649822 1144.2028416689566 -1144.9022243112183 0 0 0
4237 283 7 2 -2075.222274310778 1251.1192568564584 -1193.7988136615672 0 0 0
2176 146 1 0 -894.1025537888816 1266.228606800022 -1157.494806556847 0 0 0
5373 359 3 -1.5 -668.4680383556865 1207.1993824575134 -1129.8432056162926 0 0 0
4184 279 14 -1.5 -517.4835043751787 1218.5433111469058 -1132.5484714442741 0 0 0
4235 283 5 0 -2231.7693325360906 1314.7725307119936 -1154.3216104016028 0 0 0
4353 291 3 -1.5 -2171.2539347598154 1317.520756384144 -1127.3429193142533 0 0 0
4362 291 12 0 -2156.194718318253 1302.9321119819215 -1170.652084292137 0 0 0
4240 283 10 1 -2104.595227685903 1299.75692725838 -1169.530965103164 0 0 0
4242 283 12 0 -2142.6123369941183 1345.3668152356133 -1146.4764875116593 0 0 0
4233 283 3 -1.5 -2152.0738363647765 1393.1492335749997 -1141.7353447188082 0 0 0
4261 285 1 0 -712.9360522055913 1402.3030313016163 -1177.1449384190396 0 0 0
4268 285 8 0 -689.740611805256 1376.7085512670485 -1145.2662339964352 0 0 0
4243 283 13 -0.5 -2152.6799948595117 1426.6097016941626 -1168.3126986996535 0 0 0
3618 242 3 -1.5 -291.7981146048192 -1245.3569292698671 -1122.2251217097166 0 0 0
3751 251 1 0 -484.9874621331275 -1062.2227664528823 -1100.5527235389914 0 0 0
1306 88 1 0 -72.451611469148 -880.4634951823539 -1093.3581144118182 0 0 0
1313 88 8 0 -38.35199532103713 -851.1769390524732 -1067.1942051486985 0 0 0
2666 178 11 1 -64.18109506454076 -827.0232323798884 -1107.0602063800736 0 0 0
2667 178 12 0 -230.89305230429213 -769.4289255463974 -1100.1863265463326 0 0 0
2665 178 10 1 -170.36035573059678 -785.9351343926556 -1094.6643237771716 0 0 0
2662 178 7 2 -114.30701345771234 -812.1479929377394 -1098.4736170212907 0 0 0
2658 178 3 -1.5 -272.68522864051346 -749.3236148800856 -1078.2335551707733 0 0 0
5532 369 12 0 -2621.7195203017545 -542.9453628632137 -1112.9810377022654 0 0 0
5530 369 10 1 -2572.39595225811 -537.8176007842395 -1075.6068759913755 0 0 0
1610 108 5 0 -1429.424131315421 -537.77805475842 -1061.5199708822568 0 0 0
5525 369 5 0 -2688.279901925201 -514.8114006936346 -1070.3158539610006 0 0 0
1613 108 8 0 -1421.4792999438591 -464.5909958738093 -1051.5377187541267 0 0 0
251 17 11 1 -1053.8615839891995 -490.8276668694131 -1120.3817829408067 0 0 0
249 17 9 0 -991.0205813406791 -480.5987184219353 -1103.2479261451722 0 0 0
246 17 6 -0.5 -938.132494385618 -490.54082155710046 -1099.3815202811734 0 0 0
918 62 3 -1.5 -913.7652080222749 -504.1822270169046 -1051.2791748194547 0 0 0
254 17 14 -1.5 -906.5639437943433 -522.20209601539 -1097.3798669541607 0 0 0
927 62 12 0 -869.6926615238518 -496.28501765176094 -1077.2477959922971 0 0 0
925 62 10 1 -810.5844675319596 -465.6922322610712 -1073.5232950341365 0 0 0
922 62 7 2 -756.4364606357333 -439.76670997133385 -1057.60446200701 0 0 0
917 62 2 0 -559.3166354443628 -347.37732753365 -1053.8961642381903 0 0 0
5443 363 13 -0.5 -533.3283498453983 -269.3953240966689 -1105.1740728786017 0 0 0
5433 363 3 -1.5 -547.9315659128823 -288.57687687286864 -1069.1763198057588 0 0 0
3384 226 9 0 -529.7455556979262 -246.25543312850402 -1058.5346191855347 0 0 0
3389 226 14 -1.5 -462.0061163869041 -181.66784785475215 -1082.5236942559432 0 0 0
3381 226 6 -0.5 -483.9442636113096 -214.18255475513087 -1060.7721703854575 0 0 0
651 44 6 -0.5 -151.22447739455808 -203.3548876887824 -1121.027619952933 0 0 0
659 44 14 -1.5 -118.74060332078106 -211.00170507945495 -1092.203701696747 0 0 0
3125 209 5 0 -1156.8429629639418 -102.77169084408607 -1109.7062403725165 0 0 0
5062 338 7 2 -855.7707693678002 22.679435600074175 -1058.2830989811146 0 0 0
5064 338 9 0 -750.7918740418877 29.20827901490812 -1118.9383338403773 0 0 0
5066 338 11 1 -806.6551904010953 28.806532438839422 -1079.698036983136 0 0 0
1291 87 1 0 -1164.520835403419 401.2649127808048 -1061.599734232687 0 0 0
3029 202 14 -1.5 -321.70142675047015 497.8792615812982 -1058.8529901349903 0 0 0
5165 345 5 0 -2062.1630554132234 570.8844307762217 -1057.7243500633633 0 0 0
5168 345 8 0 -2025.5038717043074 525.539646365894 -1082.9327991776618 0 0 0
5163 345 3 -1.5 -2113.8366736336957 650.6660561362135 -1095.0833827255283 0 0 0
4693 313 13 -0.5 -2923.9963783437443 743.4284557422749 -1086.5569143858986 0 0 0
4683 313 3 -1.5 -2899.1029678792506 727.5992242094255 -1055.5629690948756 0 0 0
4692 313 12 0 -2850.0800382091556 723.884445083841 -1053.6910227244816 0 0 0
4685 313 5 0 -2832.4134815860925 675.3658482493481 -1113.0985515173634 0 0 0
5173 345 13 -0.5 -2098.817041029378 682.7897287604225 -1119.3913768489479 0 0 0
1416 95 6 -0.5 -1540.2860699794712 799.4413791008476 -1114.3149380380166 0 0 0
1424 95 14 -1.5 -1536.272704456053 822.9099338761711 -1076.2989279535686 0 0 0
4066 272 1 0 -2709.275060061879 843.5552691432289 -1101.3151530268553 0 0 0
5633 376 8 0 -1049.2120703628225 1031.3106985455534 -1057.9766826241455 0 0 0
5630 376 5 0 -1016.2851933581497 1029.8831439801543 -1114.302501218537 0 0 0
4069 272 4 0 -2505.3551545124446 1108.7750520346456 -1074.1100233004743 0 0 0
4067 272 2 0 -2471.745786939627 1076.2331842217704 -1054.2701206493768 0 0 0
4082 273 2 0 -814.5496562359967 1108.3906578918409 -1104.871942922002 0 0 0
4084 273 4 0 -758.2834326265337 1103.9857569712096 -1096.9579724631524 0 0 0
4895 327 5 0 -854.6246641188947 1145.4776941011862 -1119.3127225288765 0 0 0
5631 376 6 -0.5 -693.7353946180915 1168.8954104396064 -1117.5773912530274 0 0 0
4897 327 7 2 -683.6862554060787 1149.7697007889617 -1118.9100383043478 0 0 0
4273 285 13 -0.5 -651.3475013480407 1168.5724247780465 -1110.292293059097 0 0 0
5639 376 14 -1.5 -650.4212745055236 1174.9169457202952 -1112.3439876727655 0 0 0
4901 327 11 1 -639.0012276120343 1168.786679199446 -1097.9688072372755 0 0 0
4263 285 3 -1.5 -624.1083399214289 1178.5389491795245 -1079.1545894022715 0 0 0
4179 279 9 0 -594.3093317611247 1166.4624849648833 -1116.8722990210097 0 0 0
4899 327 9 0 -578.7336530567416 1178.1705252455963 -1074.5804833739412 0 0 0
4185 279 15 0 -537.7327504096069 1154.972431555645 -1083.9154798886325 0 0 0
5374 359 4 0 -229.17174502566562 1198.1737833951743 -1089.3559520158592 0 0 0
2183 146 8 0 -899.9079202131425 1246.1012076573595 -1111.1306697837588 0 0 0
5640 376 15 0 -718.9575183080459 1225.2569270076424 -1098.4177816535764 0 0 0
5382 359 12 0 -621.5307625723177 1212.1309648074523 -1111.3439505439674 0 0 0
4272 285 12 0 -600.0904157106797 1224.344582136136 -1068.628677481289 0 0 0
4176 279 6 -0.5 -554.614176447115 1203.8342462628498 -1113.4606337843766 0 0 0
5380 359 10 1 -563.8197305271508 1232.716759913445 -1114.344835520372 0 0 0
4270 285 10 1 -542.9660564254185 1251.4544326232744 -1067.6088594569321 0 0 0
4896 327 6 -0.5 -528.4663928750572 1201.8220798808495 -1076.013890861589 0 0 0
5377 359 7 2 -505.57697948904234 1252.8462422243915 -1110.6083276463892 0 0 0
4904 327 14 -1.5 -501.6656008393469 1237.1509623260483 -1075.1642729412397 0 0 0
5381 359 11 1 -455.63534228467114 1270.1732370827233 -1101.305014688773 0 0 0
5385 359 15 0 -326.6700604418127 1269.9226733668556 -1108.7282591840778 0 0 0
5372 359 2 0 -266.4090576395247 1237.8674499127574 -1106.0036820436385 0 0 0
4363 291 13 -0.5 -2205.625595744874 1340.531829677048 -1115.787719811211 0 0 0
5627 376 2 0 -746.7185913716239 1310.102531443207 -1070.4851445674976 0 0 0