LAMMPS data file via write_data, version 27 Jun 2024, timestep = 17920000, units = real

5730 atoms
15 atom types
5570 bonds
16 bond types
5730 angles
15 angle types

-3000 3000 xlo xhi
-1500 1500 ylo yhi
-1500 1500 zlo zhi

Masses

1 241.19
2 73.54000000000001
3 330.71
4 235.16
5 68.06999999999999
6 353.53
7 223.38
8 41.1
9 216.91
10 155.15
11 147.32
12 264.65
13 300.8
14 326.05
15 85.20999999999999

Pair Coeffs # lj/cut/coul/debye/gpu

1 0.71637 40.7505
2 0.665709 48.1397
3 1.15033 39.2216
4 0.726774 43.8077
5 0.514724 53.3428
6 1.17127 41.7847
7 1.2256 38.5601
8 0.675431 54.5696
9 1.26117 43.78
10 0.939007 42.5209
11 0.960667 41.1825
12 1.30988 48.0761
13 1.36645 37.7114
14 1.35529 39.2179
15 0.592003 47.2602

Bond Coeffs # harmonic

1 0.003 59.228
2 0.008 56.48
3 0.001 69.324
4 3.207 42.88
5 0.11 49.807
6 0.002 74.968
7 0.001 91.635
8 0.145 54.383
9 2.709 44.406
10 1.71 61.679
11 1.625 54.051
12 0.207 66.185
13 0.002 64.76
14 0.079 63.886
15 0.2 40
16 0.2 40

Angle Coeffs # harmonic

1 11.427 158.273
2 50.464 132.042
3 8.207 156.514
4 92.705 149.394
5 100 174.44
6 3.15 145.53
7 48.938 159.031
8 17.401 129.945
9 15.735 56.441
10 60 172.254
11 60.285 168.396
12 11.83 99.091
13 150 107.995
14 27.746 149.925
15 7.483 160.775

Atoms # full

2407 161 7 2 -2187.7964246984243 -1454.2230859984738 -1453.7553279338483 0 0 0
2559 171 9 0 -1232.7190232295386 -1325.6797678478638 -1465.563075514038 0 0 1
2556 171 6 -0.5 -1181.2095463418939 -1333.3307976873832 -1479.458345380954 0 0 1
2564 171 14 -1.5 -1137.861223887127 -1325.1093340440143 -1473.3459141030464 0 0 1
3780 252 15 0 -1686.2220990783194 -1206.8233680052288 -1474.808506811094 0 0 0
3767 252 2 0 -1627.7005807358585 -1258.5913854149435 -1442.205988581458 0 0 0
2558 171 8 0 -1552.799519070126 -1268.1051699573757 -1476.8966001518693 0 0 1
2555 171 5 0 -1508.6015682827551 -1260.1364924538332 -1433.366572683514 0 0 1
3772 252 7 2 -1842.433554635922 -1193.2849798767031 -1434.1053704492065 0 0 0
3776 252 11 1 -1799.3652508265723 -1183.3595015617507 -1466.2820761299263 0 0 0
3774 252 9 0 -1739.3703508375509 -1185.9601965110087 -1494.06202877869 0 0 0
241 17 1 0 -1263.0983031569046 -492.8634299105174 -1461.8547568334154 0 0 0
2930 196 5 0 -2476.7770418087975 -392.3786418890673 -1444.675927155331 0 0 0
2594 173 14 -1.5 -1670.99956378385 -348.0014923560173 -1431.2454088964307 0 0 1
2586 173 6 -0.5 -1655.9483244433532 -306.0972436000808 -1434.314750428522 0 0 1
962 65 2 0 -2402.985621305275 -253.2427662884033 -1437.00707688893 0 0 0
2589 173 9 0 -1626.974984656962 -269.7099987357629 -1462.515679276378 0 0 1
964 65 4 0 -2375.723655095714 -208.2698256871397 -1472.1382031860978 0 0 0
653 44 8 0 -187.80296637457187 -192.5691269977577 -1443.5258786041043 0 0 0
1058 71 8 0 -641.4162151325332 323.9863509623862 -1473.5619053858625 0 0 0
4927 329 7 2 -1875.6288227116502 601.9568341205675 -1443.308215885373 0 0 0
4354 291 4 0 -2083.8873826390354 1009.813373632821 -1461.2596218973174 0 0 0
4477 299 7 2 -1964.5785064818904 1035.3651689858268 -1453.617251914842 0 0 0
4480 299 10 1 -2003.3385131654118 1004.7429341051306 -1489.8921795323422 0 0 0
2411 161 11 1 -2178.883271499325 -1446.3352692064584 -1401.0403196727782 0 0 0
3769 252 4 0 -1582.8459889610995 -1280.0052119446548 -1412.8410174485261 0 0 0
2562 171 12 0 -1447.0539166276394 -1294.3041422556519 -1353.051287859548 0 0 1
2560 171 10 1 -1389.6045300320789 -1310.7629444841807 -1378.5639447142999 0 0 1
2561 171 11 1 -1283.1784995712414 -1324.5674860054864 -1421.7656020363938 0 0 1
2557 171 7 2 -1331.8237442033176 -1317.2475493815714 -1398.679431191151 0 0 1
3778 252 13 -0.5 -1994.143415394309 -1274.857948078258 -1362.885758082973 0 0 0
3775 252 10 1 -1888.172778549798 -1212.4645779688638 -1396.8357241902224 0 0 0
3777 252 12 0 -1933.7084366683637 -1223.446823046698 -1356.567161759916 0 0 0
1806 121 6 -0.5 -2568.6311611252527 -679.1487648459944 -1388.1546795995996 0 0 0
1814 121 14 -1.5 -2553.0080147940776 -717.3903354571622 -1372.0066040393945 0 0 0
1809 121 9 0 -2571.6837764216316 -623.3120910109056 -1387.1858305869841 0 0 0
1609 108 4 0 -1196.8947250290773 -640.3566816877799 -1384.3471342541332 0 0 0
1811 121 11 1 -2561.8335403601877 -557.5994599191617 -1370.9070636044898 0 0 0
248 17 8 0 -1285.1501547357689 -525.1808537318042 -1421.058415514962 0 0 0
1807 121 7 2 -2562.6892709079298 -504.789716225709 -1360.2960517339022 0 0 0
965 65 5 0 -2768.874091748626 -303.5648596338594 -1381.591608986133 0 0 0
2928 196 3 -1.5 -2533.7301173959318 -354.824668610004 -1361.4996451594336 0 0 0
2937 196 12 0 -2485.096892060651 -349.12312984024106 -1366.4152577829136 0 0 0
966 65 6 -0.5 -2443.8178511084243 -300.7223076676343 -1361.9594368652322 0 0 0
968 65 8 0 -2807.1881171098644 -243.6113533947309 -1407.3446574153331 0 0 0
969 65 9 0 -2497.5275157541328 -296.2412682534226 -1354.274015409354 0 0 0
975 65 15 0 -2452.931241505962 -272.88765123987633 -1411.3848549948225 0 0 0
974 65 14 -1.5 -2403.693993838133 -281.56459920231833 -1359.650497017408 0 0 0
2595 173 15 0 -1617.0003618386313 -262.02496956740396 -1410.885844919039 0 0 1
2582 173 2 0 -1595.4331565854893 -267.0164598972162 -1355.700049511748 0 0 1
961 65 1 0 -2838.055480422261 -176.80179981531953 -1399.8803876673403 0 0 0
2940 196 15 0 -2226.116673308394 -215.31512881676693 -1372.0156758675562 0 0 0
2927 196 2 0 -2206.8493347873496 -155.60300384865891 -1383.6434507134056 0 0 0
650 44 5 0 -198.26961551149628 -178.0004912746686 -1377.8400380849948 0 0 0
2929 196 4 0 -2202.24950334462 -103.79321250476086 -1413.9400349397274 0 0 0
658 44 13 -0.5 -313.3944761886021 -143.65567240059488 -1362.5073051254876 0 0 0
1055 71 5 0 -633.5095975844658 364.41478758497533 -1419.197578530377 0 0 0
1063 71 13 -0.5 -750.1696379777553 413.50497372720446 -1360.243365197512 0 0 0
1053 71 3 -1.5 -711.7258343039122 407.4032436160176 -1378.8096804433944 0 0 0
1062 71 12 0 -668.8167493263359 396.3046504311964 -1357.0672330042048 0 0 0
1411 95 1 0 -1816.9854367679086 592.5024315682967 -1374.101865933483 0 0 0
4931 329 11 1 -1854.9115407812028 614.0463785161123 -1394.837597158114 0 0 0
4352 291 2 0 -2070.957859689689 1030.1267741079316 -1408.7642166852831 0 0 0
4365 291 15 0 -2043.703267777675 1080.294028591793 -1351.4056565490805 0 0 0
4364 291 14 -1.5 -1948.5409696746644 1098.7236003043042 -1376.6420930705094 0 0 0
4481 299 11 1 -1933.96504360865 1064.8560006122457 -1419.8532938654507 0 0 0
4479 299 9 0 -1901.2642525207905 1094.2919755972146 -1369.206111316456 0 0 0
4356 291 6 -0.5 -1977.5255495177046 1131.007223823032 -1366.0010297127214 0 0 0
4234 283 4 0 -1839.8545038330774 1176.8733610048087 -1360.9254162626137 0 0 0
2409 161 9 0 -2183.336600267602 -1449.6791709060074 -1332.3691608976148 0 0 0
2406 161 6 -0.5 -2176.349747818009 -1464.4028008399343 -1277.5921443888237 0 0 0
2415 161 15 0 -2194.7433516178576 -1412.6796818796518 -1289.042436067439 0 0 0
3619 242 4 0 -5.42138357517765 -1408.7901721499497 -1322.5704807614113 0 0 0
2563 171 13 -0.5 -1525.1606888337508 -1296.3386629482436 -1315.6832206904871 0 0 1
2553 171 3 -1.5 -1493.1124766536643 -1312.5565603283774 -1339.368799242389 0 0 1
3768 252 3 -1.5 -1979.4699956322331 -1237.2350033327102 -1346.4495216319594 0 0 0
3770 252 5 0 -1918.7182515776758 -1210.5708068290148 -1314.9466313510688 0 0 0
1802 121 2 0 -2616.0721756910884 -704.4374443705228 -1307.2953703823794 0 0 0
1815 121 15 0 -2607.0996746221485 -674.5675483888853 -1344.457724237359 0 0 0
1607 108 2 0 -1155.3561197407494 -642.2986610818987 -1342.3087426376494 0 0 0
1620 108 15 0 -1151.7843127071608 -640.1149386612376 -1276.8697918223518 0 0 0
245 17 5 0 -1254.0118229808215 -579.139737133634 -1345.958596058122 0 0 0
973 65 13 -0.5 -2796.210910132927 -405.9375567527571 -1336.802830291891 0 0 0
963 65 3 -1.5 -2766.573771655604 -390.6288591311745 -1310.4384132123912 0 0 0
1810 121 10 1 -2560.4196040073916 -443.57341790408145 -1346.712503423689 0 0 0
1812 121 12 0 -2556.7116319755296 -380.6387501747035 -1332.478135284003 0 0 0
916 62 1 0 -1041.6698532356554 -389.49931503400404 -1305.2085004539567 0 0 0
972 65 12 0 -2730.7414240775784 -355.34094966839984 -1321.0380186582167 0 0 0
970 65 10 1 -2669.131326819789 -351.7203801129789 -1335.003379250764 0 0 0
1805 121 5 0 -2645.947618548162 -353.62578473448747 -1287.9273428228416 0 0 0
971 65 11 1 -2556.8700218511894 -325.15452352611607 -1346.383979770276 0 0 0
2938 196 13 -0.5 -2568.254371830917 -332.4151243733366 -1349.0878538708396 0 0 0
967 65 7 2 -2608.7341886717545 -339.6897828373393 -1342.4595455263802 0 0 0
1803 121 3 -1.5 -2532.708329032213 -343.9783084533761 -1311.726656954244 0 0 0
1813 121 13 -0.5 -2529.655736726062 -301.90230301708897 -1319.4021226452912 0 0 0
2935 196 10 1 -2430.4388628431047 -324.44947875246635 -1349.533499026727 0 0 0
923 62 8 0 -975.333429751243 -374.4833906408333 -1276.5837505415248 0 0 0
2932 196 7 2 -2380.5923341514895 -292.89669414919337 -1331.0032159368914 0 0 0
2936 196 11 1 -2331.8134985738966 -270.06469486226035 -1322.6951590540805 0 0 0
2934 196 9 0 -2269.3176629656796 -251.819855054426 -1325.7479541820333 0 0 0
2584 173 4 0 -1566.7717684596328 -257.160964728157 -1306.5230158473453 0 0 1
2931 196 6 -0.5 -2230.3294662505004 -221.1223491900966 -1312.3681312110177 0 0 0
2939 196 14 -1.5 -2203.6371174299716 -204.24719900927795 -1281.3434226920215 0 0 0
657 44 12 0 -255.18807505741898 -160.955784012969 -1303.6111740830916 0 0 0
648 44 3 -1.5 -281.44118991103295 -135.1089872677676 -1335.5294216823056 0 0 0
1060 71 10 1 -621.4448350605452 404.32187519235043 -1310.419041744381 0 0 0
1713 115 3 -1.5 -532.8859794097377 446.58455317225497 -1283.1716629439927 0 0 0
1413 95 3 -1.5 -1590.4004202355034 485.99513743748247 -1292.80424070648 0 0 0
1423 95 13 -0.5 -1567.5754899193282 451.61453308338065 -1305.338071129923 0 0 0
1723 115 13 -0.5 -574.8572931068165 452.74841592459603 -1277.6388039006956 0 0 0
5161 345 1 0 -2153.9236068646624 589.364879867305 -1288.6666977898085 0 0 0
1418 95 8 0 -1784.5503853938333 567.1128023288243 -1318.9530339426065 0 0 0
1415 95 5 0 -1720.146493832301 535.5810581127834 -1312.2821819454732 0 0 0
1422 95 12 0 -1595.1553815440457 531.8129652236332 -1310.5515216269741 0 0 0
1420 95 10 1 -1578.0027590608483 591.0453654629297 -1298.6947228371987 0 0 0
4929 329 9 0 -1832.060567873457 628.5393282611644 -1334.752119109255 0 0 0
4926 329 6 -0.5 -1801.1075264530855 643.004646843212 -1292.5991512328612 0 0 0
1417 95 7 2 -1577.9150845661927 650.3267269965236 -1281.940845224109 0 0 0
4472 299 2 0 -1854.4262385632617 1043.3085725053447 -1300.7559790072853 0 0 0
4244 283 14 -1.5 -1942.7096948533158 1108.2327841882295 -1330.454639593592 0 0 0
4485 299 15 0 -1879.9850827082926 1071.8134277737322 -1317.17805519054 0 0 0
4476 299 6 -0.5 -1859.3319259197185 1112.6862134667947 -1335.7010023076125 0 0 0
4484 299 14 -1.5 -1829.1888544743695 1108.2396902099117 -1303.2738644777148 0 0 0
4359 291 9 0 -2008.510507729121 1161.1034757932593 -1325.7392987998248 0 0 0
4236 283 6 -0.5 -1967.583752605793 1140.2497313779102 -1311.5896072743744 0 0 0
4239 283 9 0 -2007.2412394353578 1157.2265804523506 -1277.7127342744852 0 0 0
4245 283 15 0 -1925.029793949585 1150.8972955001943 -1278.4591198296393 0 0 0
4232 283 2 0 -1875.9368915509722 1161.2728576732352 -1307.4244306762066 0 0 0
4361 291 11 1 -2025.8362711951145 1207.938952125125 -1280.3767618154827 0 0 0
3629 242 14 -1.5 -107.04942372146755 1483.245326592033 -1276.7438448080163 0 -1 0
2414 161 14 -1.5 -2155.8485697004053 -1474.307274629878 -1239.2533204202243 0 0 0
2404 161 4 0 -2152.916479138459 -1432.4586775027706 -1200.8602103542748 0 0 0
3630 242 15 0 -54.02839826510586 -1467.1269035868934 -1234.036752046504 0 0 0
3617 242 2 0 -16.438037544200345 -1427.2041163074985 -1265.7707695489948 0 0 0
2402 161 2 0 -2186.553443458083 -1419.1048352843172 -1244.0300059876454 0 0 0
3773 252 8 0 -1921.6243101592352 -1176.013608397043 -1249.8611493371125 0 0 0
3766 252 1 0 -1894.0949001367917 -1141.5560217126506 -1215.5934758571523 0 0 0
3616 242 1 0 -337.48329981812077 -1131.577472147936 -1231.9522139000294 0 0 0
3623 242 8 0 -326.44496346388684 -1175.4752489763937 -1200.1206310751136 0 0 0
1804 121 4 0 -2646.5041674683985 -717.2544384602379 -1262.4434677291233 0 0 0
1618 108 13 -0.5 -1486.7252029399313 -626.320448365277 -1266.7745603828535 0 0 0
1615 108 10 1 -1360.2104899905644 -612.2930357481672 -1219.9281422293877 0 0 0
1612 108 7 2 -1302.5841187255824 -633.132870578344 -1212.3850355532325 0 0 0
243 17 3 -1.5 -1274.3445825103595 -633.5589609876596 -1221.704597393953 0 0 0
252 17 12 0 -1229.6090141223042 -618.1173957280122 -1242.4957368632618 0 0 0
1616 108 11 1 -1249.8200606491855 -644.0090881279363 -1210.0405178998046 0 0 0
1611 108 6 -0.5 -1139.1582512885007 -611.616132401388 -1223.0422780835206 0 0 0
1614 108 9 0 -1186.3436223649874 -637.754211886123 -1218.8570260144245 0 0 0
1619 108 14 -1.5 -1094.8851847481926 -610.3551254703669 -1218.2976970815541 0 0 0
1608 108 3 -1.5 -1465.3075895419931 -591.9290798564106 -1253.1422266295588 0 0 0
1617 108 12 0 -1422.335205176497 -595.1824250762229 -1226.2016598939372 0 0 0
250 17 10 1 -1168.0006892911172 -596.3923854952292 -1233.0802394925854 0 0 0
247 17 7 2 -1113.2360126615815 -572.8710066198269 -1216.7373518628506 0 0 0
920 62 5 0 -917.3109688887432 -400.16562377910344 -1224.3079734922824 0 0 0
1801 121 1 0 -2765.470912996833 -302.51995747391715 -1218.1159684045738 0 0 0
1808 121 8 0 -2715.8701622505173 -290.07927166996586 -1266.3775748653647 0 0 0
3121 209 1 0 -1285.73027568791 -162.34639513936804 -1205.1577548497312 0 0 0
655 44 10 1 -222.17665972055315 -163.4174496043032 -1250.4314899681567 0 0 0
1057 71 7 2 -573.8549773288407 414.20947090409976 -1272.168389905348 0 0 0
1061 71 11 1 -525.7203836708646 425.9406520507163 -1250.608831812936 0 0 0
1059 71 9 0 -463.88342374673056 432.6454592146804 -1227.437212687335 0 0 0
1056 71 6 -0.5 -410.51891789806376 437.9520365172503 -1231.048533674607 0 0 0
1064 71 14 -1.5 -375.1711311031009 444.6187799398123 -1257.2052579329738 0 0 0
1722 115 12 0 -491.63290931107855 466.1539314521079 -1261.7996499407743 0 0 0
1720 115 10 1 -431.16862330351256 472.5572094080855 -1256.162779130538 0 0 0
1065 71 15 0 -410.23702010101135 498.8825562957804 -1213.6631482652747 0 0 0
1717 115 7 2 -372.1853615271723 480.23083021249784 -1240.4718236552187 0 0 0
1721 115 11 1 -323.2010356457673 482.6274172300612 -1218.0362622846983 0 0 0
1719 115 9 0 -257.9810066013684 493.7499011994038 -1208.4856128808474 0 0 0
5168 345 8 0 -2098.5277022737996 581.407113655297 -1214.6623158658479 0 0 0
4922 329 2 0 -1861.1646662891374 569.8496767730376 -1217.1056848474136 0 0 0
1725 115 15 0 -236.04657260461593 546.9650813673779 -1219.621608085877 0 0 0
1712 115 2 0 -185.48744795657288 578.6658396719532 -1224.3770702237032 0 0 0
4935 329 15 0 -1838.4363237652299 619.4432930047491 -1267.0839264736564 0 0 0
1714 115 4 0 -143.16700210366585 626.1285669775328 -1236.6337699692763 0 0 0
4934 329 14 -1.5 -1783.592106007368 675.0285760233942 -1266.2812411363655 0 0 0
1421 95 11 1 -1585.739719255476 701.8150138722671 -1265.5107827284137 0 0 0
1419 95 9 0 -1607.5698972673288 755.8488148992327 -1234.0146329027034 0 0 0
1425 95 15 0 -1598.0300198792163 815.4095127728998 -1245.2295763544125 0 0 0
4663 311 13 -0.5 -1245.1825041599275 781.6731526079224 -1242.5139082380908 0 0 0
4653 311 3 -1.5 -1249.1772402479146 805.8427436088651 -1207.6829465191247 0 0 0
1412 95 2 0 -1604.2897817130734 876.1871103239524 -1229.0966342768158 0 0 0
4660 311 10 1 -1174.279809316029 881.3312458926962 -1200.0430039792984 0 0 0
1414 95 4 0 -1613.6632923127916 930.6702356537882 -1202.06584992746 0 0 0
4093 273 13 -0.5 -1107.1117449886924 948.888183412924 -1210.438342734493 0 0 0
4657 311 7 2 -1122.4338810286476 912.9627163381416 -1201.6864465854637 0 0 0
4474 299 4 0 -1839.2714219683926 1016.9496701045116 -1255.7395572171947 0 0 0
4665 311 15 0 -999.2730219790213 1025.39634828276 -1219.8412206033022 0 0 0
4652 311 2 0 -943.2917912002695 1086.3670569665128 -1235.8081416303967 0 0 0
5635 376 10 1 -882.1035867395078 1102.8664041228049 -1201.8300132424433 0 0 0
4183 279 13 -0.5 -839.2965062727803 1103.0639993796742 -1204.519816873581 0 0 0
4654 311 4 0 -897.480369971276 1117.6422430041198 -1242.9276455305765 0 0 0
4241 283 11 1 -2040.710773943016 1196.9992975189775 -1236.445848691837 0 0 0
5632 376 7 2 -835.262136411415 1143.056382626748 -1201.6878357837104 0 0 0
4903 327 13 -0.5 -830.4505028073661 1182.3728519341225 -1208.8342868122945 0 0 0
5636 376 11 1 -791.4473072802016 1175.032081334225 -1201.3971082361238 0 0 0
4893 327 3 -1.5 -788.4301720655748 1179.5032636076044 -1202.5761384886407 0 0 0
4357 291 7 2 -2050.4770383512223 1238.4562804979828 -1242.9349039351252 0 0 0
4175 279 5 0 -823.8266210405087 1227.5081744303855 -1231.5556621773592 0 0 0
2176 146 1 0 -780.6353317399388 1224.0032875655293 -1200.0430577846266 0 0 0
5634 376 9 0 -729.9492236508444 1202.2405497509649 -1202.1530366305565 0 0 0
4360 291 10 1 -2074.076325412994 1276.5648147526938 -1201.535408318709 0 0 0
4178 279 8 0 -867.4717505533023 1305.1019998181096 -1252.907620320698 0 0 0
4898 327 8 0 -797.0173511810862 1337.2013118601421 -1201.7511680680936 0 0 0
4891 327 1 0 -826.1998745733487 1395.973848529843 -1214.627893268242 0 0 0
4171 279 1 0 -860.2844749895216 1350.3768576914333 -1203.25368060773 0 0 0
4268 285 8 0 -596.9442737269346 1379.3760732219237 -1227.2001565404676 0 0 0
4261 285 1 0 -641.391433722389 1438.5927823870372 -1241.4410300440682 0 0 0
3621 242 6 -0.5 -107.16723038302071 1492.6445271645703 -1233.7008702003072 0 -1 0
4358 291 8 0 -2140.5015327695605 -1486.8208828135391 -1186.426028722357 0 1 0
4351 291 1 0 -2108.4065154458376 -1441.5827567008803 -1186.9019418775204 0 1 0
3624 242 9 0 -118.77342128516901 -1471.6711210845756 -1192.5005038878396 0 0 0
3626 242 11 1 -149.11415458331544 -1425.1310816137452 -1160.5896679892899 0 0 0
3622 242 7 2 -177.409059521184 -1381.5532333553438 -1146.206478542581 0 0 0
3620 242 5 0 -266.288560052597 -1230.978182460797 -1155.423537384565 0 0 0
2666 178 11 1 -0.29928012435641976 -799.9357354687918 -1158.8776994157681 0 0 0
1306 88 1 0 -36.32949118842307 -723.8280616698097 -1193.3239578062182 0 0 0
1313 88 8 0 -45.36332301622954 -703.4446769109029 -1135.8529150291852 0 0 0
253 17 13 -0.5 -1286.0010343931463 -651.536854420239 -1184.9834518038915 0 0 0
2656 178 1 0 -303.50898611593925 -656.409684823643 -1156.2260177244823 0 0 0
251 17 11 1 -1066.208344106222 -553.0334294537921 -1199.948869048524 0 0 0
928 62 13 -0.5 -919.2181881706632 -551.1079309017482 -1156.1986166888591 0 0 0
1610 108 5 0 -1445.0306399446079 -511.44553599344874 -1145.0390044359733 0 0 0
249 17 9 0 -1016.0831425577768 -515.81669810479 -1177.5949068293517 0 0 0
246 17 6 -0.5 -963.9617210829967 -502.8423518616394 -1164.240602415899 0 0 0
254 17 14 -1.5 -927.3250067204707 -512.3835220285838 -1142.2543286029995 0 0 0
918 62 3 -1.5 -900.56420952679 -516.3019730826056 -1173.0473627955482 0 0 0
927 62 12 0 -879.5985259090229 -475.6497857101688 -1157.0265853317992 0 0 0
5533 369 13 -0.5 -2699.748322865494 -425.29465833475916 -1133.0276442335476 0 0 0
3128 209 8 0 -1290.278281314186 -204.22706182827676 -1161.8777592156462 0 0 0
919 62 4 0 -573.5189218982493 -214.12744997134914 -1147.4195696905683 0 0 0
652 44 7 2 -206.11081572266596 -175.2679992475086 -1191.8778576300724 0 0 0
656 44 11 1 -194.20836215455256 -191.97749101689692 -1142.3254661003343 0 0 0
5070 338 15 0 -772.8712426328807 41.48635772006338 -1125.9824077308372 0 0 0
5057 338 2 0 -788.8779212847844 123.55416177899461 -1157.465451208435 0 0 0
5059 338 4 0 -779.9967562487773 182.26460353228174 -1163.1597298113961 0 0 0
1718 115 8 0 -585.3708094963331 448.90414851911714 -1139.0469351260756 0 0 0
1715 115 5 0 -520.2197763849778 451.1143382423821 -1192.3732953789574 0 0 0
1716 115 6 -0.5 -211.83740815569314 514.6706829458826 -1183.6711801847425 0 0 0
4681 313 1 0 -2704.41718440755 567.938770012199 -1164.2519220258368 0 0 0
4688 313 8 0 -2696.4436228638833 585.1059449071645 -1131.7416904045647 0 0 0
4924 329 4 0 -1895.897549974821 531.0561708934359 -1187.2410131608353 0 0 0
1052 71 2 0 -404.34638743361415 563.4029802169028 -1156.335516414723 0 0 0
1724 115 14 -1.5 -196.59348501363817 549.487053140786 -1161.0311384427584 0 0 0
5165 345 5 0 -2130.9824412505227 627.9647056755803 -1140.6238454216602 0 0 0
5173 345 13 -0.5 -2222.168272438564 730.6636901739389 -1159.6459554990458 0 0 0
4081 273 1 0 -1056.3135393898726 706.8573993706129 -1126.047601452047 0 0 0
1416 95 6 -0.5 -1609.7980141794112 790.7342111970781 -1195.2192959815593 0 0 0
4088 273 8 0 -1037.2832326537623 766.8793092327879 -1142.4381051647863 0 0 0
4073 272 8 0 -2678.1058464360276 897.7081816358609 -1164.1902631361497 0 0 0
1424 95 14 -1.5 -1618.9828075667774 832.9992696168713 -1182.3483710189437 0 0 0
4662 311 12 0 -1221.9814044869017 841.512276389267 -1186.795464120146 0 0 0
4085 273 5 0 -1016.8025761343008 849.1599928936154 -1141.2462365750011 0 0 0
4066 272 1 0 -2660.8669622757307 910.629735905674 -1192.1339022783666 0 0 0
4661 311 11 1 -1074.3351076983392 937.1537950529996 -1197.5882488637212 0 0 0
4083 273 3 -1.5 -1074.1520545676008 931.2568656132252 -1190.1523185048602 0 0 0
4092 273 12 0 -1041.5324205190607 943.5287235584913 -1154.2930959922196 0 0 0
4659 311 9 0 -1022.8468199256547 975.6220043903221 -1183.253542767935 0 0 0
4090 273 10 1 -988.0204646868242 976.5126776224728 -1150.8744998223028 0 0 0
5638 376 13 -0.5 -935.7667933011132 979.6189459552588 -1163.587476940515 0 0 0
5628 376 3 -1.5 -932.0042847664321 1008.8198105101061 -1195.002994879372 0 0 0
4656 311 6 -0.5 -974.3684876944913 995.1325416338368 -1186.3986133993285 0 0 0
4664 311 14 -1.5 -931.7148285003806 992.6527180619466 -1173.5225548646679 0 0 0
4087 273 7 2 -941.3596973696319 1017.4863688118072 -1144.149981962746 0 0 0
4091 273 11 1 -894.4741240131707 1043.9463887680956 -1144.6224974575814 0 0 0
5637 376 12 0 -921.7982224729847 1053.9152771023855 -1192.175325156172 0 0 0
4089 273 9 0 -843.2658555315408 1083.3702482365259 -1156.0669853262668 0 0 0
4173 279 3 -1.5 -801.6631136231096 1104.0220393064988 -1184.2539224559164 0 0 0
4086 273 6 -0.5 -816.6621746097242 1132.7148641155309 -1160.5032760192016 0 0 0
4094 273 14 -1.5 -803.8547263065528 1165.2080381098758 -1187.553656088796 0 0 0
4182 279 12 0 -768.7183123014901 1140.3611662606977 -1177.5533751543055 0 0 0
4902 327 12 0 -758.6289783233766 1194.2807351318756 -1164.7729736473227 0 0 0
2183 146 8 0 -814.9762659983289 1187.455920650378 -1144.5555650427123 0 0 0
4180 279 10 1 -711.4037661322569 1160.2709804999517 -1169.3000568185078 0 0 0
4900 327 10 1 -698.2274258627045 1195.8776899498198 -1145.051689569115 0 0 0
4177 279 7 2 -650.6426548436234 1172.1083805812505 -1162.1693870568224 0 0 0
4181 279 11 1 -598.8322803191984 1183.1552869525785 -1154.4875117946217 0 0 0
4237 283 7 2 -2055.9111468551137 1228.264750506989 -1195.6500087256081 0 0 0
4240 283 10 1 -2067.715509041752 1265.6804354479457 -1148.1470981620814 0 0 0
4895 327 5 0 -779.6446199383566 1268.9868800018246 -1167.2047164453818 0 0 0
5631 376 6 -0.5 -680.8763797872581 1200.2934973522358 -1185.6455117557634 0 0 0
5640 376 15 0 -701.1088746030031 1264.2047865855238 -1154.4950339140694 0 0 0
5383 359 13 -0.5 -674.5243033548413 1216.8735557860136 -1145.5700856136375 0 0 0
4897 327 7 2 -638.9894715644106 1204.398002370146 -1130.031187834969 0 0 0
5373 359 3 -1.5 -638.6853301409209 1215.6499373794177 -1168.8221400307975 0 0 0
5639 376 14 -1.5 -645.7249970586435 1220.479360379003 -1167.6082389981373 0 0 0
4263 285 3 -1.5 -607.0142659298918 1218.7205747304643 -1130.7602668228267 0 0 0
5382 359 12 0 -603.3584336648219 1244.7771074048403 -1166.7424082008154 0 0 0
5380 359 10 1 -541.518649960953 1253.2809056646083 -1152.7256671673078 0 0 0
4179 279 9 0 -538.7999827151734 1206.5619316066268 -1136.00699493901 0 0 0
4176 279 6 -0.5 -498.8782296877465 1242.7818190044222 -1131.807609099847 0 0 0
5377 359 7 2 -485.44039537463647 1273.0603916276532 -1137.2080913127747 0 0 0
5372 359 2 0 -306.6719652438183 1241.152322173218 -1165.894853195501 0 0 0
5374 359 4 0 -281.8869830473237 1211.6104120540967 -1198.2172041377476 0 0 0
4362 291 12 0 -2109.4148695602616 1309.5927585543775 -1157.7320560717808 0 0 0
4265 285 5 0 -612.3956727914327 1313.6849877408865 -1182.9476467889124 0 0 0
5375 359 5 0 -646.6401571253739 1296.6134436709563 -1128.279344474643 0 0 0
5385 359 15 0 -334.6339081164327 1293.4730134672213 -1133.7219471070612 0 0 0
5384 359 14 -1.5 -311.1825854880557 1377.3175138455515 -1136.3362677036246 0 0 0
4355 291 5 0 -2099.923904227058 1439.4908611585338 -1190.2227998590542 0 0 0
3627 242 12 0 -261.96015307572117 -1296.9198196630234 -1099.7526185550207 0 0 0
3625 242 10 1 -212.99492634672544 -1339.5493360983617 -1118.618583712584 0 0 0
3628 242 13 -0.5 -297.60721730357665 -1226.6966016643119 -1073.7914990524607 0 0 0
3618 242 3 -1.5 -283.98901328109207 -1267.274180323452 -1070.5164139714325 0 0 0
2665 178 10 1 -83.10974541639736 -789.3603396889196 -1078.6343445518169 0 0 0
2662 178 7 2 -36.7640444802664 -795.0550249209668 -1118.657201148823 0 0 0
2660 178 5 0 -196.202832733216 -733.0387785551575 -1092.2373947378157 0 0 0
1310 88 5 0 -61.198383420108875 -738.0595867397577 -1056.2031871890124 0 0 0
2663 178 8 0 -240.60934563218038 -672.393985057933 -1122.4113398906516 0 0 0
5525 369 5 0 -2692.427423334931 -578.7847040346317 -1056.5125365901831 0 0 0
255 17 15 0 -987.120644987417 -533.059036713105 -1105.7359214325386 0 0 0
242 17 2 0 -989.7761561559391 -531.5723562358562 -1053.6777307782647 0 0 0
5523 369 3 -1.5 -2692.0242679010835 -464.3148758341231 -1115.3887898750008 0 0 0
5532 369 12 0 -2655.835308543447 -480.57305668645705 -1086.9993766037276 0 0 0
1613 108 8 0 -1463.4328664774296 -494.92690708871135 -1082.5713336568451 0 0 0
925 62 10 1 -837.524679557838 -444.24611707438754 -1119.8875842526058 0 0 0
3388 226 13 -0.5 -808.4233711955999 -380.6293410895151 -1101.037883371477 0 0 0
922 62 7 2 -795.3756194773973 -414.80906379442797 -1085.944216473423 0 0 0
3378 226 3 -1.5 -771.093523976976 -381.0215825836737 -1081.644781719926 0 0 0
926 62 11 1 -756.8886731536351 -390.5288411422807 -1055.9620427781813 0 0 0
3387 226 12 0 -745.303556641482 -341.32073843774003 -1060.4668831812248 0 0 0
3385 226 10 1 -685.8086934269497 -310.4246594867257 -1057.688095118767 0 0 0
930 62 15 0 -642.1328726980182 -315.11654172653283 -1068.873281078911 0 0 0
917 62 2 0 -612.7600754091358 -243.21649131063074 -1119.235667467425 0 0 0
3382 226 7 2 -643.0912510531314 -265.2886259610065 -1057.7809292334268 0 0 0
5443 363 13 -0.5 -619.6818065450411 -232.85300630892533 -1070.7316768607486 0 0 0
5433 363 3 -1.5 -579.347738250783 -230.58834768357775 -1057.1109585880276 0 0 0
660 44 15 0 -116.3668976871458 -225.29696387652598 -1059.3323730363736 0 0 0
3125 209 5 0 -1239.4551000497327 -200.46575430307246 -1088.9918859485667 0 0 0
3386 226 11 1 -608.7190025257323 -224.37136075368295 -1067.3731167579715 0 0 0
3384 226 9 0 -555.145023691442 -185.00634187891364 -1069.2842760647457 0 0 0
3381 226 6 -0.5 -505.87218397412795 -166.62794497447175 -1090.609016770151 0 0 0
3389 226 14 -1.5 -464.0722822079662 -174.9061896239734 -1102.1866565060807 0 0 0
3390 226 15 0 -487.59283883463223 -197.11434666645025 -1059.1579949722375 0 0 0
3377 226 2 0 -420.1772182429739 -190.45420348627954 -1067.9802619263046 0 0 0
654 44 9 0 -172.30717073499372 -199.76167597908693 -1079.639140591803 0 0 0
5062 338 7 2 -903.7361555404431 -51.181004736968376 -1051.3777640043952 0 0 0
5066 338 11 1 -853.1177133387118 -49.1624191886684 -1071.6999076258815 0 0 0
5064 338 9 0 -799.299541952548 -29.24110404935949 -1104.3263682668462 0 0 0
5061 338 6 -0.5 -748.4510077039223 -15.792219639511138 -1111.4102536134744 0 0 0
5069 338 14 -1.5 -713.2810621225698 9.76589693648387 -1102.4224694969023 0 0 0
5056 338 1 0 -1188.3793855253691 121.87211432509682 -1057.0152321326057 0 0 0
5063 338 8 0 -1116.5219232655138 106.35325145350919 -1058.8608625009686 0 0 0
1711 115 1 0 -619.7546239228373 400.0724814778643 -1107.8914124250437 0 0 0
3029 202 14 -1.5 -373.1441215819838 437.3006537888924 -1050.5658383901978 0 0 0
3017 202 2 0 -362.4915206117682 503.855259737602 -1062.648224423502 0 0 0
3019 202 4 0 -291.91671213390856 492.0736229364393 -1058.9765179862832 0 0 0
4685 313 5 0 -2752.955060426187 658.2709863529454 -1108.9376793358754 0 0 0
1054 71 4 0 -409.34492200544923 603.8866871778031 -1117.836762173272 0 0 0
5163 345 3 -1.5 -2216.3995693503293 724.7044003992501 -1117.7432946881347 0 0 0
5172 345 12 0 -2176.1851156299986 718.8317895014131 -1089.3676492415793 0 0 0
4070 272 5 0 -2673.0823868281204 894.6588097476534 -1072.4359949659868 0 0 0
4655 311 5 0 -1245.6709891946505 848.2523664645909 -1080.381570374457 0 0 0
4069 272 4 0 -2344.566449500645 1111.2845059406786 -1061.924368397973 0 0 0
5630 376 5 0 -976.6305552364604 1068.0489778901592 -1095.369709013452 0 0 0
4095 273 15 0 -787.1312299250119 1114.0637479304073 -1115.8668745851298 0 0 0
1501 101 1 0 -2324.9479573169156 1145.6355910275533 -1063.4289111583155 0 0 0
2180 146 5 0 -884.1791947772357 1185.2838900085312 -1083.8094303396495 0 0 0
4084 273 4 0 -686.4760992205632 1149.9601302682881 -1122.4960859624193 0 0 0
4082 273 2 0 -733.8164825717788 1141.3060011546434 -1108.8509445934042 0 0 0
4273 285 13 -0.5 -611.7367337893321 1181.8582396460495 -1109.1085974349908 0 0 0
4238 283 8 0 -2223.264526464947 1262.5006478751816 -1051.8117987864146 0 0 0
4235 283 5 0 -2165.128819439516 1261.2316600693623 -1078.8065658990754 0 0 0
2178 146 3 -1.5 -977.5069623053254 1255.7648497002576 -1051.8416551809894 0 0 0
4901 327 11 1 -586.8580782882203 1213.9551792148563 -1116.4735298826104 0 0 0
4272 285 12 0 -578.3174617207627 1260.9603671727093 -1122.8801600763545 0 0 0
4899 327 9 0 -530.4627017256608 1236.242698175425 -1091.3157494162667 0 0 0
4184 279 14 -1.5 -456.55078419242597 1249.7293838554797 -1121.2507265677948 0 0 0
4896 327 6 -0.5 -485.65050943262173 1266.8967487056518 -1092.353072970671 0 0 0