LAMMPS data file via write_data, version 27 Jun 2024, timestep = 31680000, units = real

5730 atoms
15 atom types
5688 bonds
16 bond types
5730 angles
15 angle types

-3000 3000 xlo xhi
-1500 1500 ylo yhi
-1500 1500 zlo zhi

Masses

1 241.19
2 73.54000000000001
3 330.71
4 235.16
5 68.06999999999999
6 353.53
7 223.38
8 41.1
9 216.91
10 155.15
11 147.32
12 264.65
13 300.8
14 326.05
15 85.20999999999999

Pair Coeffs # lj/cut/coul/debye/gpu

1 0.71637 40.7505
2 0.665709 48.1397
3 1.15033 39.2216
4 0.726774 43.8077
5 0.514724 53.3428
6 1.17127 41.7847
7 1.2256 38.5601
8 0.675431 54.5696
9 1.26117 43.78
10 0.939007 42.5209
11 0.960667 41.1825
12 1.30988 48.0761
13 1.36645 37.7114
14 1.35529 39.2179
15 0.592003 47.2602

Bond Coeffs # harmonic

1 0.003 59.228
2 0.008 56.48
3 0.001 69.324
4 3.207 42.88
5 0.11 49.807
6 0.002 74.968
7 0.001 91.635
8 0.145 54.383
9 2.709 44.406
10 1.71 61.679
11 1.625 54.051
12 0.207 66.185
13 0.002 64.76
14 0.079 63.886
15 0.2 40
16 0.2 40

Angle Coeffs # harmonic

1 11.427 158.273
2 50.464 132.042
3 8.207 156.514
4 92.705 149.394
5 100 174.44
6 3.15 145.53
7 48.938 159.031
8 17.401 129.945
9 15.735 56.441
10 60 172.254
11 60.285 168.396
12 11.83 99.091
13 150 107.995
14 27.746 149.925
15 7.483 160.775

Atoms # full

3776 252 11 1 -1696.1733099212938 -1297.9056156531278 -1436.9606965757603 0 0 0
3774 252 9 0 -1640.7689505866756 -1302.3645517867465 -1471.6314529765955 0 0 0
3771 252 6 -0.5 -1589.4603900565528 -1315.7197777471388 -1489.1944471061006 0 0 0
3780 252 15 0 -1591.51419038184 -1275.4261812310301 -1464.3842767281226 0 0 0
3779 252 14 -1.5 -1549.511794192425 -1330.0560975349126 -1478.2195183309734 0 0 0
3766 252 1 0 -2008.1853806238548 -1245.350277139604 -1471.511060654483 0 0 0
3767 252 2 0 -1527.5896399284234 -1227.5899583176308 -1451.145437102695 0 0 0
3769 252 4 0 -1463.7624593186658 -1214.5751793473971 -1444.3657996321117 0 0 0
2551 171 1 0 -1455.1714211794795 -1202.4287126194988 -1490.9309948476516 0 0 1
2564 171 14 -1.5 -1042.8122878333775 -1257.7967601326468 -1469.3764171512726 0 0 1
2556 171 6 -0.5 -1047.018177616561 -1232.677703850636 -1433.1909249118853 0 0 1
1082 73 2 0 -2433.6797294980674 -1139.3687155775701 -1440.434934468596 0 0 1
2558 171 8 0 -1400.9035419583533 -1191.1889667817886 -1445.4135339598029 0 0 1
2555 171 5 0 -1347.2890433471355 -1162.5300338735167 -1447.3311475100325 0 0 1
1095 73 15 0 -2418.909827346365 -1090.518983397752 -1492.3558790636964 0 0 1
1086 73 6 -0.5 -2365.1511000001774 -1075.9149038209662 -1466.9541716340657 0 0 1
1094 73 14 -1.5 -2340.357414913388 -1109.119412998001 -1451.5302237687117 0 0 1
1089 73 9 0 -2369.880568643295 -1037.1975818091728 -1499.8865398204764 0 0 1
1804 121 4 0 -2695.8486105835673 -703.9820925060138 -1428.4158830146355 0 0 0
1814 121 14 -1.5 -2829.2835528927003 -554.1795442352894 -1445.5161836440664 0 0 0
961 65 1 0 -2863.1753354397943 -385.479203138406 -1469.2106649776665 0 0 0
968 65 8 0 -2817.677846767811 -365.8937265151034 -1441.614573815807 0 0 0
965 65 5 0 -2733.791573891361 -365.2886351867406 -1440.9440624863048 0 0 0
2594 173 14 -1.5 -1693.525233629636 -301.41095366390476 -1470.3271473037887 0 0 1
2586 173 6 -0.5 -1657.6799741740435 -275.6900607324442 -1478.1887954974725 0 0 1
1801 121 1 0 -2789.647917951658 -178.76622471578153 -1486.4237039218901 0 0 0
2584 173 4 0 -1730.934112295179 -163.8702829111596 -1483.56434820094 0 0 1
2595 173 15 0 -1656.8561575347928 -220.69306127736596 -1489.027060156158 0 0 1
2582 173 2 0 -1690.1464919680434 -204.897648344593 -1487.565034990843 0 0 1
1058 71 8 0 -703.7229984807684 -38.73818813539225 -1496.1577510806503 0 0 0
1055 71 5 0 -761.6321163859088 1.4747773373777031 -1453.0669279485455 0 0 0
1060 71 10 1 -774.9905819430629 136.77443240657934 -1439.0082586376486 0 0 0
1062 71 12 0 -815.5990683605656 83.90541016350868 -1428.2818445306455 0 0 0
1057 71 7 2 -729.5526031261618 178.52744230300416 -1435.1908867671723 0 0 0
1061 71 11 1 -689.449321759826 214.3560136365938 -1429.5196578564053 0 0 0
4931 329 11 1 -1778.3619895242814 572.4289722989023 -1472.8811305264599 0 0 0
1418 95 8 0 -1451.5911216116483 536.4325315765689 -1450.9551144811278 0 0 0
5281 353 1 0 -2728.600408392349 743.5455276676907 -1485.8352561469187 0 0 1
5288 353 8 0 -2698.6235920990985 690.0152663343094 -1493.4077364655232 0 0 1
4244 283 14 -1.5 -2034.3691972132494 1155.2588086500245 -1455.6787821667212 0 0 0
4477 299 7 2 -2057.0781074604743 1186.1777047149126 -1471.8598646934677 0 0 0
4356 291 6 -0.5 -2051.1719968435173 1162.902145525901 -1455.4177258298896 0 0 0
4365 291 15 0 -2099.420596676216 1164.7978681812622 -1444.2786581855764 0 0 0
4364 291 14 -1.5 -2047.1703178204584 1157.2675788158142 -1498.4142739067515 0 0 0
4481 299 11 1 -2015.3420861686611 1186.4430994459512 -1437.2026617350775 0 0 0
4352 291 2 0 -2136.987459399404 1215.606191712496 -1488.3995951114207 0 0 0
2403 161 3 -1.5 -2247.101931903537 1497.9929680279943 -1434.7814949488625 0 -1 0
2413 161 13 -0.5 -2224.4334977334706 1478.972174063644 -1465.8191758974106 0 -1 0
2412 161 12 0 -2241.270608286152 -1485.9925580808824 -1387.7054349834389 0 0 0
3773 252 8 0 -1978.6019220677877 -1278.2679883850387 -1422.5700141951338 0 0 0
3772 252 7 2 -1738.609119344574 -1283.7453756977961 -1406.440262959956 0 0 0
2565 171 15 0 -1054.9714313211405 -1277.8170410442378 -1379.899998773999 0 0 1
3770 252 5 0 -1918.4428553874461 -1257.2360709279005 -1392.3521526879897 0 0 0
3775 252 10 1 -1790.3536516751058 -1274.0064049685955 -1375.3106293826104 0 0 0
1084 73 4 0 -2427.813882965233 -1144.011233584879 -1374.760186706087 0 0 1
2557 171 7 2 -1174.4768600279408 -1131.4338300865716 -1395.767172634767 0 0 1
2561 171 11 1 -1126.481227421826 -1155.1967506524988 -1395.4627728796088 0 0 1
2559 171 9 0 -1075.318149790611 -1192.454380253857 -1408.8388504774898 0 0 1
2562 171 12 0 -1295.443852951452 -1101.5447431386651 -1382.963262817807 0 0 1
2553 171 3 -1.5 -1335.2645323227875 -1104.793689470447 -1354.0618505564519 0 0 1
2560 171 10 1 -1233.576939912543 -1111.862651105589 -1389.3623984774522 0 0 1
1802 121 2 0 -2719.506872302095 -655.9935873894696 -1403.5650319637589 0 0 0
1806 121 6 -0.5 -2796.0846560468403 -543.1238225071371 -1418.2648951500967 0 0 0
1815 121 15 0 -2751.2796306476794 -582.8347490457055 -1383.3735714640793 0 0 0
1809 121 9 0 -2761.8942031078072 -503.83046578032406 -1398.1562608945817 0 0 0
1811 121 11 1 -2740.9272832135316 -450.3954475210552 -1364.8122642189774 0 0 0
973 65 13 -0.5 -2718.7402108443903 -443.5684302982324 -1364.2022303068075 0 0 0
1807 121 7 2 -2713.6342936210413 -405.5312772032811 -1352.4027674089252 0 0 0
963 65 3 -1.5 -2689.5301834754355 -426.34557707552364 -1389.8340430502 0 0 0
972 65 12 0 -2668.5156818524533 -382.9606181046496 -1403.6223506885622 0 0 0
5533 369 13 -0.5 -2678.556804489863 -384.9807765710249 -1356.535108979577 0 0 0
970 65 10 1 -2640.6428604552275 -326.266858564208 -1384.2003874574405 0 0 0
967 65 7 2 -2617.15345212622 -270.64580837674333 -1369.862367973753 0 0 0
1808 121 8 0 -2746.611714533208 -187.22318539548283 -1423.792984506712 0 0 0
2926 196 1 0 -2758.214569241666 -152.67809911865473 -1365.973443537537 0 0 0
1805 121 5 0 -2686.05162764546 -222.37239400382 -1376.826150307706 0 0 0
2930 196 5 0 -2651.689179879115 -186.68695233641586 -1350.611908802313 0 0 0
971 65 11 1 -2598.238463442411 -223.44653484706794 -1350.3409560770942 0 0 0
1053 71 3 -1.5 -848.6700970284035 63.15326810968109 -1397.0419081423856 0 0 0
1063 71 13 -0.5 -876.8424621107566 76.43869099663866 -1366.9086495897989 0 0 0
1723 115 13 -0.5 -698.3548339093524 159.56659047505616 -1419.5437969881043 0 0 0
1713 115 3 -1.5 -699.0097980684368 192.82889957462578 -1392.536886094702 0 0 0
1722 115 12 0 -669.8299883957159 222.8495973870488 -1370.4589073901234 0 0 0
1059 71 9 0 -645.7003307372989 260.05134127623313 -1406.454844346612 0 0 0
1720 115 10 1 -616.3131750245186 256.3873789998045 -1371.7013846047569 0 0 0
1717 115 7 2 -571.0835988165188 298.90715977554095 -1373.1791784861302 0 0 0
1056 71 6 -0.5 -621.8077377123105 304.93084388241846 -1385.7920727222786 0 0 0
1064 71 14 -1.5 -596.216224087996 322.142478617974 -1354.1453899047697 0 0 0
1721 115 11 1 -533.5777889513913 336.7185631361375 -1367.5389816338795 0 0 0
1423 95 13 -0.5 -1583.5481912104117 408.88359248208997 -1404.493762282645 0 0 0
1413 95 3 -1.5 -1617.003662644618 434.1401897478976 -1396.0739647456232 0 0 0
1422 95 12 0 -1620.1623130242258 469.45450352678785 -1368.8010774276938 0 0 0
1415 95 5 0 -1530.7376824773198 523.3308595575729 -1392.375532991582 0 0 0
4926 329 6 -0.5 -1814.4161491886416 540.4194987056892 -1363.153719746773 0 0 0
4929 329 9 0 -1798.281868475578 566.7442173173126 -1407.5055943218056 0 0 0
1411 95 1 0 -1390.211404613505 557.1281569558047 -1417.007069569904 0 0 0
4239 283 9 0 -2050.474190584423 1129.0869772830756 -1366.6851330866616 0 0 0
4236 283 6 -0.5 -2029.9260481160243 1134.7078697418333 -1416.5694193442266 0 0 0
4359 291 9 0 -2071.841652285355 1151.8772898572201 -1406.5902614303889 0 0 0
4245 283 15 0 -2016.801924672421 1153.5463734014368 -1387.0904011335176 0 0 0
4479 299 9 0 -1971.914283847068 1190.7706947156107 -1386.274690194923 0 0 0
4232 283 2 0 -1919.1294004742058 1188.483733822136 -1402.5267413152355 0 0 0
4234 283 4 0 -1861.179866552276 1181.5975165084344 -1397.7266771969878 0 0 0
4264 285 4 0 -273.5088589712932 1283.7894112313707 -1385.403597420267 0 0 0
2410 161 10 1 -2241.333591192947 -1442.4943692541774 -1338.692979881224 0 0 0
2407 161 7 2 -2256.1997027569487 -1407.521920283906 -1290.3117927237843 0 0 0
3768 252 3 -1.5 -1862.4979876061864 -1284.3047891221368 -1294.0952462310784 0 0 0
2552 171 2 0 -1082.0908746486086 -1344.5630770697392 -1323.6989399579295 0 0 1
3777 252 12 0 -1840.4073434271488 -1273.656539309358 -1337.7516128199832 0 0 0
2563 171 13 -0.5 -1343.1731193305063 -1124.6173549144908 -1316.5138157275508 0 0 1
5521 369 1 0 -2862.6475597406215 -506.4174695167386 -1344.0211918974749 0 0 0
5528 369 8 0 -2802.6477589830324 -515.2156194363919 -1342.4138769973981 0 0 0
5525 369 5 0 -2729.5410077146366 -461.20285601223196 -1305.3739576156227 0 0 0
5523 369 3 -1.5 -2644.009113810755 -409.492749333596 -1349.1926853947505 0 0 0
5532 369 12 0 -2637.2531404221254 -442.9739884840696 -1313.9689836321193 0 0 0
1810 121 10 1 -2687.872246658464 -351.1382445719544 -1338.4815077561168 0 0 0
916 62 1 0 -878.4712156785632 -372.9268641909933 -1343.5496070186402 0 0 0
1812 121 12 0 -2650.7565179877197 -297.70446537044984 -1323.2987163782016 0 0 0
1813 121 13 -0.5 -2588.81890180012 -248.51240809536054 -1348.1338526390218 0 0 0
2938 196 13 -0.5 -2601.541646238605 -292.6908244074249 -1341.9771508938734 0 0 0
2928 196 3 -1.5 -2562.8311592944983 -278.1983103456613 -1331.2211885582801 0 0 0
1803 121 3 -1.5 -2607.046049865408 -273.2360635260895 -1318.5309756077863 0 0 0
2937 196 12 0 -2553.3492894755605 -231.30840377628041 -1322.7764272432262 0 0 0
646 44 1 0 -369.7298706164516 -244.42349262454482 -1284.6093880654419 0 0 0
2933 196 8 0 -2703.8015424625 -154.92367179214997 -1343.8902263952987 0 0 0
969 65 9 0 -2564.756026132668 -177.48768420640445 -1314.5241710326336 0 0 0
2935 196 10 1 -2518.2631555785224 -188.95788378665645 -1292.7607481110842 0 0 0
966 65 6 -0.5 -2521.7151832159834 -157.01380234937983 -1290.4570526898217 0 0 0
1715 115 5 0 -699.1330889937565 227.60250552552017 -1288.6813308933488 0 0 0
1065 71 15 0 -649.1095613734747 289.2741809725767 -1325.307339556805 0 0 0
1719 115 9 0 -492.07672868087974 382.31589378036944 -1345.9226208895125 0 0 0
1716 115 6 -0.5 -447.49481364802466 412.2473218478376 -1338.3218337516278 0 0 0
1724 115 14 -1.5 -407.86436135170464 420.11561740810174 -1318.9099227914874 0 0 0
4922 329 2 0 -1695.0878911085265 497.647053969089 -1307.0111275514912 0 0 0
1420 95 10 1 -1644.8325607700986 497.90451692614005 -1316.9777357563048 0 0 0
1725 115 15 0 -496.6379205014828 459.8616631760676 -1327.8204951943746 0 0 0
4934 329 14 -1.5 -1842.302174420183 540.0273111254237 -1329.5320122177404 0 0 0
4935 329 15 0 -1744.9495755707171 548.3718754989158 -1334.1159872966289 0 0 0
1712 115 2 0 -489.54428437719713 539.5962201776847 -1286.2600493643363 0 0 0
1412 95 2 0 -1709.7605437136635 722.0705754077602 -1278.8260234228246 0 0 0
1414 95 4 0 -1697.6419090933582 763.0626707098545 -1304.0373190501136 0 0 0
4472 299 2 0 -2019.414301113928 1120.0879982102679 -1279.7126152647795 0 0 0
4361 291 11 1 -2103.442301824948 1162.1298008959739 -1348.9129134415302 0 0 0
4357 291 7 2 -2121.561252257974 1176.8658748192206 -1299.9255073699035 0 0 0
4241 283 11 1 -2077.314190418875 1147.2533625015876 -1309.930280840751 0 0 0
4485 299 15 0 -1980.8765624382513 1176.0278678439954 -1344.5080808954367 0 0 0
4476 299 6 -0.5 -1943.191915322296 1171.8579959149015 -1343.265719466991 0 0 0
4484 299 14 -1.5 -1936.7537552305466 1176.701441365739 -1299.3966068024806 0 0 0
4262 285 2 0 -309.2497429088948 1285.1456434608708 -1333.89214187442 0 0 0
2408 161 8 0 -2307.7804427120473 1379.2791646277751 -1309.0138684450785 0 -1 0
2405 161 5 0 -2267.7278446162804 1425.4648221563277 -1348.2685371726654 0 -1 0
2411 161 11 1 -2265.033056615586 -1380.894026606535 -1244.433925162508 0 0 0
2554 171 4 0 -1115.6136068607973 -1370.2448381226907 -1274.253344240921 0 0 1
2402 161 2 0 -2280.1435159687085 -1204.3079448623191 -1226.538347808526 0 0 0
3778 252 13 -0.5 -1887.4208313828879 -1259.826409636205 -1268.9160590113866 0 0 0
2404 161 4 0 -2314.667043734166 -1157.6558395254103 -1235.4296295712597 0 0 0
5530 369 10 1 -2608.657762924714 -453.05657928069803 -1255.7013080923955 0 0 0
923 62 8 0 -858.4796629734159 -361.56031728571605 -1265.4039285878564 0 0 0
653 44 8 0 -322.19676217393334 -256.4981206962232 -1227.8191189981503 0 0 0
975 65 15 0 -2556.073268562229 -169.35425354786224 -1263.1308826420996 0 0 0
2932 196 7 2 -2478.3817162626206 -151.6812253866246 -1264.5933007157578 0 0 0
974 65 14 -1.5 -2506.359651816494 -126.6426635636167 -1262.0110608551895 0 0 0
2936 196 11 1 -2447.2220333923 -113.52424909026519 -1243.3823941922128 0 0 0
2934 196 9 0 -2403.651189050883 -75.32376993745416 -1216.0792476687482 0 0 0
658 44 13 -0.5 -213.85565169614097 -95.63182873998429 -1252.5870840479668 0 0 0
648 44 3 -1.5 -182.22587309572063 -115.20191090479408 -1230.977909842595 0 0 0
2931 196 6 -0.5 -2371.842976885349 -29.690778507624394 -1210.9558775421124 0 0 0
1718 115 8 0 -684.094172621443 279.437076028894 -1228.1359360711056 0 0 0
1711 115 1 0 -621.0637218633713 292.90455704556484 -1208.3113010335417 0 0 0
1052 71 2 0 -616.8157876121807 336.3467995221804 -1259.2944425847431 0 0 0
3023 202 8 0 -797.0726040799348 398.25396927995484 -1202.1063313545612 0 0 0
3016 202 1 0 -760.0675971247857 442.04046456584376 -1219.3694442179756 0 0 0
1054 71 4 0 -628.2067720414332 376.86414089402894 -1222.1881501193375 0 0 0
4924 329 4 0 -1655.0538411627651 489.8203353518184 -1269.6427866755598 0 0 0
1417 95 7 2 -1679.1287704691028 524.426569619312 -1272.4604441780668 0 0 0
1421 95 11 1 -1708.3684482134347 554.3285606711734 -1237.8223112043893 0 0 0
1714 115 4 0 -495.4217878842013 593.2436388405367 -1269.745088346774 0 0 0
1419 95 9 0 -1740.8908569798116 604.0434467556778 -1207.9938663811085 0 0 0
1425 95 15 0 -1732.9755734207758 683.3031478660906 -1243.7493366952353 0 0 0
4654 311 4 0 -1007.3391857672007 1020.4566346723589 -1208.9451846674729 0 0 0
4474 299 4 0 -2059.4054277172204 1098.4810741253966 -1237.2983189539818 0 0 0
4358 291 8 0 -2322.3984937601263 1148.3354835333093 -1208.558044410286 0 0 0
4360 291 10 1 -2135.539833368416 1194.816098415981 -1243.166870942746 0 0 0
4240 283 10 1 -2111.315802639869 1173.6471888373758 -1203.2949884433906 0 0 0
4237 283 7 2 -2096.269012899612 1162.1957789397936 -1261.648060187281 0 0 0
4174 279 4 0 -489.4072153655189 1259.2705043728424 -1271.69314627485 0 0 0
4892 327 2 0 -440.2037785199196 1243.627885384289 -1218.8443298026098 0 0 0
4185 279 15 0 -567.8875313238584 1277.6121083715739 -1232.6251867046676 0 0 0
4172 279 2 0 -531.664063497258 1282.2885391996508 -1240.528401519807 0 0 0
5381 359 11 1 -470.5408948902392 1287.3759265931963 -1212.1703498062482 0 0 0
4904 327 14 -1.5 -512.7380236200656 1319.2004962950964 -1210.7930932279082 0 0 0
5379 359 9 0 -409.61902311107264 1303.8691313207719 -1231.872704138655 0 0 0
5376 359 6 -0.5 -372.02919317252065 1331.61573945312 -1257.63718866998 0 0 0
4275 285 15 0 -331.4855444005737 1297.563818932013 -1269.9442545911327 0 0 0
4269 285 9 0 -359.661448342429 1289.923984639203 -1205.2519094981722 0 0 0
4266 285 6 -0.5 -309.5990053184263 1309.7466307994825 -1213.4206860025276 0 0 0
5385 359 15 0 -360.5984363269045 1336.5561847948675 -1207.5521287089296 0 0 0
4274 285 14 -1.5 -276.5431515022562 1338.096028426206 -1204.8139804612279 0 0 0
2401 161 1 0 -2298.682601279896 1386.4502301023726 -1249.9495705434426 0 -1 0
5384 359 14 -1.5 -339.37431207677105 1361.1166483259528 -1254.5979554084304 0 0 0
5372 359 2 0 -267.0060016045851 1390.1259963686562 -1205.792385957763 0 0 0
5374 359 4 0 -224.06095001999037 1439.576580241821 -1208.1039641513942 0 0 0
3868 258 13 -0.5 -377.2770296422242 -1381.5400810719918 -1154.0421482933873 0 0 0
3858 258 3 -1.5 -411.08468313555323 -1357.434164463859 -1142.687677572775 0 0 0
3625 242 10 1 -402.2666554139374 -1351.784566599144 -1143.5028982931794 0 0 0
3622 242 7 2 -344.246715246314 -1373.2090456057372 -1136.5465731629204 0 0 0
3626 242 11 1 -295.54125655528713 -1397.3677365147075 -1130.0373643436737 0 0 0
2406 161 6 -0.5 -2264.498818096644 -1310.4502304479086 -1151.7359479779816 0 0 0
2409 161 9 0 -2253.5450271309273 -1343.4089528315155 -1193.1079606751769 0 0 0
3863 258 8 0 -578.2185364830051 -1290.1259608723863 -1156.6635564410135 0 0 0
3628 242 13 -0.5 -538.0913775181681 -1315.8393055685935 -1188.7934822984394 0 0 0
3618 242 3 -1.5 -512.9118529595877 -1339.6812007256158 -1163.1819728033106 0 0 0
3627 242 12 0 -465.0670829005775 -1333.6307891721528 -1146.4600722254527 0 0 0
2415 161 15 0 -2258.7238351999995 -1246.8251296068067 -1195.361184083988 0 0 0
3856 258 1 0 -636.6889425951937 -1262.7561315180862 -1142.9975975233347 0 0 0
2665 178 10 1 -13.573561236841517 -791.9803636967384 -1132.657096227269 0 0 0
2660 178 5 0 -130.15599046187245 -728.8511470084269 -1139.7120310166927 0 0 0
1614 108 9 0 -1122.8593609111165 -545.8294017160345 -1135.3759155460339 0 0 0
5527 369 7 2 -2587.502693628172 -453.02660837222777 -1197.4667131360193 0 0 0
5531 369 11 1 -2563.4799162372597 -457.64416148471116 -1149.1676533584744 0 0 0
1620 108 15 0 -1135.2357800691545 -488.59980548420924 -1170.9661601401913 0 0 0
1611 108 6 -0.5 -1082.5608703949683 -522.862163592644 -1161.6993282799144 0 0 0
247 17 7 2 -1054.2923737622777 -468.00502911981584 -1134.9823835403333 0 0 0
1619 108 14 -1.5 -1048.3490765349263 -494.81480328606165 -1165.7759713783014 0 0 0
1607 108 2 0 -1164.6927970131687 -405.87735079267406 -1196.7667609643775 0 0 0
251 17 11 1 -1010.7905212677194 -435.2524232229119 -1138.3179863361993 0 0 0
249 17 9 0 -968.6234445834247 -385.81815092877446 -1147.057118959542 0 0 0
255 17 15 0 -900.3119483232331 -381.7351158777657 -1132.6035403106341 0 0 0
1609 108 4 0 -1197.6728685715198 -350.3174841478296 -1191.1588894705155 0 0 0
246 17 6 -0.5 -930.2185566995556 -348.997714432216 -1132.8296455704137 0 0 0
254 17 14 -1.5 -915.0436967749075 -307.65919099344603 -1131.6572870023135 0 0 0
920 62 5 0 -887.3476630646112 -344.3725544146695 -1169.622937863022 0 0 0
962 65 2 0 -2528.307989973045 -159.20536457117137 -1194.3928095776 0 0 0
964 65 4 0 -2477.264720719431 -153.763238814151 -1173.1650374891235 0 0 0
5431 363 1 0 -538.0857427973064 -195.49570944368537 -1175.0604070971008 0 0 0
650 44 5 0 -263.78716310290804 -203.7453536844357 -1195.757848531096 0 0 0
657 44 12 0 -182.42151674037564 -136.87008036936638 -1186.994584836886 0 0 0
655 44 10 1 -153.041665401288 -145.10480645878158 -1127.5755090713524 0 0 0
2940 196 15 0 -2413.378186508015 -11.242275839414733 -1170.232175395495 0 0 0
2939 196 14 -1.5 -2343.3391437369933 -9.669158181170758 -1184.166897489049 0 0 0
3121 209 1 0 -1397.032507359354 -58.120837876169645 -1172.2080129284232 0 0 0
2929 196 4 0 -2479.7500897633513 129.06368335659113 -1151.8121161942788 0 0 0
2927 196 2 0 -2456.192032428695 85.97588462938819 -1176.6822730998983 0 0 0
3109 208 4 0 -986.7384958671918 330.33803861722987 -1132.9350087591772 0 0 0
3020 202 5 0 -800.7731992570926 365.91606226963876 -1140.2275484491686 0 0 0
3021 202 6 -0.5 -468.14144060025245 425.3321209552686 -1130.2372133666506 0 0 0
3029 202 14 -1.5 -424.0500659771286 420.6297470798552 -1128.240363287676 0 0 0
1416 95 6 -0.5 -1753.059183604358 644.1178748185375 -1175.6743760341676 0 0 0
1424 95 14 -1.5 -1775.059060665286 659.7391112748261 -1140.0060178056476 0 0 0
4652 311 2 0 -1020.7176119497328 986.3336464963934 -1156.7536875473118 0 0 0
5630 376 5 0 -996.3731145683055 1114.5537567329172 -1157.981013170866 0 0 0
4893 327 3 -1.5 -810.3357949939087 1091.610154564488 -1132.47752535459 0 0 0
4902 327 12 0 -772.6566964208481 1121.0427212953866 -1129.372563562518 0 0 0
4351 291 1 0 -2377.131297038605 1127.8165818732086 -1194.4069854029294 0 0 0
4355 291 5 0 -2280.625565951596 1197.8014816220634 -1183.0510903461275 0 0 0
4242 283 12 0 -2122.7868497704567 1193.7867901332058 -1140.1093389167206 0 0 0
5633 376 8 0 -1013.7750660997082 1186.041953503935 -1163.6101684043197 0 0 0
2176 146 1 0 -831.1593216942275 1186.109680232897 -1131.8291206375386 0 0 0
4175 279 5 0 -896.0616923571558 1194.996501755687 -1179.513654714644 0 0 0
4182 279 12 0 -824.3395540690899 1140.6225926611398 -1140.2109924921058 0 0 0
4180 279 10 1 -770.9849978742591 1169.7320190989612 -1154.393046062999 0 0 0
4900 327 10 1 -720.519999883378 1147.3811349224088 -1148.4629407812615 0 0 0
4897 327 7 2 -673.3269604571478 1184.967037012775 -1160.2326487162745 0 0 0
4235 283 5 0 -2221.5815889834516 1240.677927996984 -1138.474584457404 0 0 0
4362 291 12 0 -2154.66054843875 1206.7505169700244 -1183.095501943541 0 0 0
4353 291 3 -1.5 -2154.62558901044 1239.216133187873 -1145.0783461138121 0 0 0
5626 376 1 0 -1071.844927626191 1211.1753890336502 -1153.4766044658356 0 0 0
4178 279 8 0 -955.6350239511944 1253.6906086514664 -1153.1316284170034 0 0 0
4177 279 7 2 -720.6470903860786 1202.601812398005 -1167.9370020938575 0 0 0
5631 376 6 -0.5 -677.2879300384902 1206.4502510826997 -1129.8570696859374 0 0 0
5383 359 13 -0.5 -690.4574060730547 1214.091722373751 -1137.9938562502198 0 0 0
5373 359 3 -1.5 -675.4432354826739 1253.3926929965282 -1130.7819866975321 0 0 0
4181 279 11 1 -676.7439955950724 1232.1232895710516 -1178.5676721182688 0 0 0
4273 285 13 -0.5 -673.3601228055222 1214.7214846005286 -1130.4242670458639 0 0 0
4901 327 11 1 -633.6060338806865 1216.647134956856 -1177.6795975625253 0 0 0
4179 279 9 0 -619.9517157873582 1266.2398681141165 -1176.7525311328463 0 0 0
4263 285 3 -1.5 -640.7303011637445 1226.5849471785482 -1154.6470253505963 0 0 0
5639 376 14 -1.5 -639.8155226326325 1202.0509667854567 -1153.042344850507 0 0 0
5382 359 12 0 -631.8851257865085 1274.8654910631235 -1134.5800698091841 0 0 0
4272 285 12 0 -592.5203548182781 1242.8684189143871 -1139.5631715215131 0 0 0
4899 327 9 0 -576.1868764280188 1249.1956056339832 -1191.6481975746801 0 0 0
4270 285 10 1 -532.2878979702605 1262.796445284247 -1153.186585948443 0 0 0
4905 327 15 0 -520.0400383091368 1228.573485181536 -1194.5319020639834 0 0 0
4894 327 4 0 -387.71178001309045 1254.6525493752108 -1190.6413771004843 0 0 0
4231 283 1 0 -2321.442634723177 1276.9463257612445 -1127.2862220679935 0 0 0
4171 279 1 0 -1010.108415989383 1284.7693465870493 -1171.870047933917 0 0 0
4176 279 6 -0.5 -573.6672215490204 1285.3226011532668 -1156.2391906735986 0 0 0
4184 279 14 -1.5 -537.4042081868074 1308.7251648214515 -1162.5204811831316 0 0 0
5380 359 10 1 -575.8619743172135 1283.832795262774 -1163.3030658896814 0 0 0
4896 327 6 -0.5 -538.8061958160638 1287.9706384555234 -1192.3619090124523 0 0 0
5377 359 7 2 -521.746259226157 1285.255483984911 -1192.0742141540813 0 0 0
4267 285 7 2 -473.1076217413368 1277.67880858715 -1166.2960463821428 0 0 0
4271 285 11 1 -421.1406412009936 1285.5529458527 -1183.7619650006657 0 0 0
3619 242 4 0 -299.4920380260027 1358.1219129642623 -1168.9415623943808 0 -1 0
3617 242 2 0 -292.93036858097486 1402.8237518584722 -1146.645619750553 0 -1 0
3624 242 9 0 -246.59325288975776 -1439.384630098242 -1120.1072532798719 0 0 0
3621 242 6 -0.5 -204.35092225775315 -1462.9953315599298 -1097.7604434318366 0 0 0
2414 161 14 -1.5 -2277.4355023766925 -1304.3871318586025 -1110.0424297777583 0 0 0
3860 258 5 0 -524.7174174521627 -1298.0838240148728 -1121.4826216040947 0 0 0
3867 258 12 0 -433.31416879574755 -1349.3150643150484 -1097.5117635788608 0 0 0
3620 242 5 0 -482.98685283969263 -1251.6144423787275 -1083.8494934828527 0 0 0
2658 178 3 -1.5 -99.97778679862485 -834.6078422020914 -1075.361196512363 0 0 0
1318 88 13 -0.5 -125.07050034396003 -879.075254769837 -1068.4553584875462 0 0 0
1618 108 13 -0.5 -1272.4225306445665 -814.9445846609217 -1079.6616730966286 0 0 0
1608 108 3 -1.5 -1255.7575023401987 -787.8089474949421 -1050.6226294769547 0 0 0
2667 178 12 0 -70.39322190745744 -804.2802372187678 -1106.8077370152969 0 0 0
1613 108 8 0 -1443.2927406483425 -700.4909259466173 -1055.1243233261853 0 0 0
1615 108 10 1 -1222.0634650967918 -681.5747297225543 -1067.0010197045735 0 0 0
3436 230 1 0 -1919.6589024828238 -659.9397350044403 -1099.4287345749751 0 0 0
3443 230 8 0 -1945.5478055153696 -658.803643531831 -1052.458413318902 0 0 0
253 17 13 -0.5 -1198.631242279476 -604.2339989071459 -1113.4655635251145 0 0 0
1612 108 7 2 -1189.748419963575 -633.1192012387085 -1087.3196202388601 0 0 0
2663 178 8 0 -157.08782523463705 -657.5911594739019 -1120.6224020947327 0 0 0
243 17 3 -1.5 -1189.1551469033952 -565.6462331580575 -1097.1645241982746 0 0 0
1616 108 11 1 -1165.310095748914 -588.6432850712285 -1105.851362213177 0 0 0
252 17 12 0 -1146.1920325857084 -543.6875262654921 -1096.2678941450897 0 0 0
2656 178 1 0 -191.56776091769672 -598.1106337246151 -1106.158065302637 0 0 0
5529 369 9 0 -2553.3161702905445 -460.3925502993835 -1083.7054234480845 0 0 0
5535 369 15 0 -2532.4019626357276 -507.18514062118254 -1051.1764216439774 0 0 0
250 17 10 1 -1101.4367908773268 -505.43452373919655 -1120.9063342333047 0 0 0
242 17 2 0 -831.3633931690814 -403.0374682973969 -1123.9752018783738 0 0 0
244 17 4 0 -790.4174623160918 -391.02339564838803 -1100.2116120735063 0 0 0
928 62 13 -0.5 -971.0010453971556 -333.8763095441407 -1103.5733180883701 0 0 0
918 62 3 -1.5 -929.729173419453 -321.7111455874057 -1095.8822092367984 0 0 0
927 62 12 0 -887.0231070691973 -347.77362675732263 -1101.9535118918834 0 0 0
925 62 10 1 -824.684780324139 -356.9309586809435 -1081.7466315453173 0 0 0
3388 226 13 -0.5 -805.1256052224331 -348.9441165520761 -1060.4662474097966 0 0 0
3378 226 3 -1.5 -763.4414305340557 -358.6840774037887 -1061.426586479329 0 0 0
922 62 7 2 -769.1090452864746 -364.57223174724646 -1056.7082200590737 0 0 0
3387 226 12 0 -724.9396584172058 -328.46762892359607 -1070.7400020138625 0 0 0
3385 226 10 1 -669.7989733655534 -314.7808981683611 -1051.3148458612216 0 0 0
917 62 2 0 -512.1269592434344 -329.2241659216699 -1056.0637916238325 0 0 0
5062 338 7 2 -918.2858421408172 -232.90596801875824 -1055.975873696876 0 0 0
3380 226 5 0 -778.0775424645532 -249.26349097512565 -1076.543323533084 0 0 0
5068 338 13 -0.5 -1092.628431172785 -161.1178856622917 -1115.1317122905543 0 0 0
5058 338 3 -1.5 -1074.6588267826512 -197.47540935490147 -1100.2506705818112 0 0 0
3131 209 11 1 -1060.0576461168978 -154.0355312962205 -1102.4609040364646 0 0 0
3129 209 9 0 -997.0450458178954 -171.6640399313475 -1101.4680905854764 0 0 0
5067 338 12 0 -1035.1777199503042 -201.58716102784092 -1075.2483917372574 0 0 0
5065 338 10 1 -977.8035830892987 -222.22648347133944 -1064.7365489404344 0 0 0
3134 209 14 -1.5 -911.3799895379568 -211.60622112737798 -1087.8940928970655 0 0 0
3126 209 6 -0.5 -952.0399465708769 -201.8166542975459 -1102.7751541185492 0 0 0
3135 209 15 0 -953.4647838519915 -177.490539345632 -1050.5164483122671 0 0 0
3376 226 1 0 -897.9387741334957 -189.1828842504555 -1053.1194042314803 0 0 0
3383 226 8 0 -823.6675073097621 -221.10795397060298 -1054.4295889760804 0 0 0
5438 363 8 0 -555.3920461926322 -194.25075812497698 -1109.74151183966 0 0 0
3128 209 8 0 -1363.1348438636985 -88.24250142768985 -1121.581147736779 0 0 0
3125 209 5 0 -1297.9088890101182 -99.77456778734695 -1109.384495398348 0 0 0
3130 209 10 1 -1162.6991163841087 -106.35167018939742 -1079.6912127107719 0 0 0
3127 209 7 2 -1109.1386735433493 -134.97122830149038 -1091.1457069179844 0 0 0
652 44 7 2 -131.94757793114047 -137.27997349626114 -1070.0524838776066 0 0 0
3132 209 12 0 -1213.215171369104 -73.1475282230257 -1055.7891805302377 0 0 0
3133 209 13 -0.5 -1251.7690022077677 -0.1611984818398974 -1056.5524620406309 0 0 0
3107 208 2 0 -958.1170976267897 323.23175509870407 -1083.5170728794878 0 0 0
1305 87 15 0 -817.2872094939107 361.71975791585595 -1057.4198132418328 0 0 0
1292 87 2 0 -769.8345760020494 357.7543239488977 -1098.8606283911565 0 0 0
992 67 2 0 -789.7712447090775 315.94955581503575 -1069.2591456702041 0 0 0
1294 87 4 0 -724.6879819717037 367.57409968735624 -1120.1462193195387 0 0 0
994 67 4 0 -737.704857566802 321.79027021746936 -1095.403039429327 0 0 0
3027 202 12 0 -742.1704570780485 360.3015883506728 -1051.1392074370603 0 0 0
3025 202 10 1 -683.042716917502 378.5231949187149 -1067.1145725265606 0 0 0
3022 202 7 2 -623.6351491508817 389.6236826723171 -1073.96418415488 0 0 0
2391 160 6 -0.5 -644.4474244326254 426.48228711124466 -1075.8044100235927 0 0 0
2399 160 14 -1.5 -607.2954360309134 417.06950818778483 -1098.8195332674009 0 0 0
3026 202 11 1 -573.1861574228028 397.66028797639916 -1091.5396599655196 0 0 0
3024 202 9 0 -516.15906890675 425.06235348968596 -1107.9556206545103 0 0 0
3030 202 15 0 -439.1964595558243 436.3773526741907 -1060.7330250420616 0 0 0
2387 160 2 0 -679.1254313232886 509.1074592329826 -1081.7049354097562 0 0 0