LAMMPS data file via write_data, version 27 Jun 2024, timestep = 31040000, units = real

5730 atoms
15 atom types
5683 bonds
16 bond types
5730 angles
15 angle types

-3000 3000 xlo xhi
-1500 1500 ylo yhi
-1500 1500 zlo zhi

Masses

1 241.19
2 73.54000000000001
3 330.71
4 235.16
5 68.06999999999999
6 353.53
7 223.38
8 41.1
9 216.91
10 155.15
11 147.32
12 264.65
13 300.8
14 326.05
15 85.20999999999999

Pair Coeffs # lj/cut/coul/debye/gpu

1 0.71637 40.7505
2 0.665709 48.1397
3 1.15033 39.2216
4 0.726774 43.8077
5 0.514724 53.3428
6 1.17127 41.7847
7 1.2256 38.5601
8 0.675431 54.5696
9 1.26117 43.78
10 0.939007 42.5209
11 0.960667 41.1825
12 1.30988 48.0761
13 1.36645 37.7114
14 1.35529 39.2179
15 0.592003 47.2602

Bond Coeffs # harmonic

1 0.003 59.228
2 0.008 56.48
3 0.001 69.324
4 3.207 42.88
5 0.11 49.807
6 0.002 74.968
7 0.001 91.635
8 0.145 54.383
9 2.709 44.406
10 1.71 61.679
11 1.625 54.051
12 0.207 66.185
13 0.002 64.76
14 0.079 63.886
15 0.2 40
16 0.2 40

Angle Coeffs # harmonic

1 11.427 158.273
2 50.464 132.042
3 8.207 156.514
4 92.705 149.394
5 100 174.44
6 3.15 145.53
7 48.938 159.031
8 17.401 129.945
9 15.735 56.441
10 60 172.254
11 60.285 168.396
12 11.83 99.091
13 150 107.995
14 27.746 149.925
15 7.483 160.775

Atoms # full

3766 252 1 0 -2015.0655658591768 -1277.924963843608 -1481.7628139434999 0 0 0
3773 252 8 0 -1975.083837142498 -1258.1391016380928 -1426.3403867977258 0 0 0
3774 252 9 0 -1650.0775881771299 -1254.1723651763446 -1457.5945295407546 0 0 0
3771 252 6 -0.5 -1599.6409204946347 -1269.2414908813237 -1471.54653027566 0 0 0
3780 252 15 0 -1566.8573231238638 -1230.2391314953309 -1451.0510831404056 0 0 0
3779 252 14 -1.5 -1564.7917010266901 -1265.0873301526708 -1498.0708982321385 0 0 0
3767 252 2 0 -1497.6614120400432 -1215.001118620657 -1462.6544035718418 0 0 0
3769 252 4 0 -1455.6543923873917 -1193.9634724429109 -1480.099361296238 0 0 0
2555 171 5 0 -1331.5616675824538 -1144.6127365012112 -1450.248543411943 0 0 1
1086 73 6 -0.5 -2369.013114904557 -1063.1317916630499 -1457.5864933848588 0 0 1
2558 171 8 0 -1391.4540780724415 -1121.294796346531 -1492.9255695082868 0 0 1
1089 73 9 0 -2368.484685551895 -1014.4235029815987 -1478.0567924058446 0 0 1
1804 121 4 0 -2812.0659983759742 -701.7187925602473 -1438.6268129604011 0 0 0
1802 121 2 0 -2787.8321281642416 -653.3224943137744 -1434.8844322304521 0 0 0
1806 121 6 -0.5 -2784.168630222374 -539.3184086830755 -1455.9813185978026 0 0 0
1814 121 14 -1.5 -2770.6572580113057 -572.7031590956439 -1482.8534395081044 0 0 0
965 65 5 0 -2722.948258479485 -385.51776202799266 -1435.6775316683115 0 0 0
961 65 1 0 -2817.1799121454274 -365.62262847492724 -1496.396877217308 0 0 0
968 65 8 0 -2760.366260482747 -357.52928323507683 -1479.0416394549388 0 0 0
2582 173 2 0 -1771.8928708843584 -281.0985881559389 -1451.9889203057003 0 0 1
2594 173 14 -1.5 -1689.80500379578 -287.14716294173775 -1441.4453409491985 0 0 1
2586 173 6 -0.5 -1660.8361215571938 -283.8027371375086 -1474.9261897028061 0 0 1
1801 121 1 0 -2781.5688187751653 -104.64068095110136 -1446.3752595035346 0 0 0
1063 71 13 -0.5 -792.2500935626998 50.07220381159622 -1435.2011129788918 0 0 0
1062 71 12 0 -746.3734522949062 123.77366065591573 -1429.183286776364 0 0 0
1413 95 3 -1.5 -1610.2924694097485 429.72038446835995 -1425.1254210647537 0 0 0
4931 329 11 1 -1764.9714800128077 512.2379616711069 -1482.2447307060393 0 0 0
1423 95 13 -0.5 -1624.1250582419634 452.4957431804998 -1458.6287012094626 0 0 0
5281 353 1 0 -2787.571679155296 681.2793182258557 -1454.1425086810375 0 0 1
5288 353 8 0 -2746.4013367817347 696.6642551800282 -1484.9263079677057 0 0 1
4352 291 2 0 -2133.4500187964863 1170.982057443549 -1478.2873373956793 0 0 0
4365 291 15 0 -2078.0898016622978 1158.729346588258 -1436.4009359114975 0 0 0
4480 299 10 1 -2072.402468044584 1168.0002992894429 -1498.318176959531 0 0 0
4477 299 7 2 -2033.473929938494 1168.9333542845254 -1451.2916693226923 0 0 0
4356 291 6 -0.5 -2033.7075603606131 1174.476838643119 -1436.6837643969527 0 0 0
4244 283 14 -1.5 -2035.9359230453938 1135.1220219711738 -1431.26996529462 0 0 0
4364 291 14 -1.5 -1999.2114822085628 1190.9190461006897 -1458.3851525154246 0 0 0
2413 161 13 -0.5 -2185.283625848132 1486.0300880318741 -1437.0408637791336 0 -1 0
2412 161 12 0 -2204.971972089878 -1487.9368285660369 -1355.9705487448716 0 0 0
2403 161 3 -1.5 -2175.8904085707554 -1496.4343920467388 -1398.6264323904481 0 0 0
2565 171 15 0 -1029.2793892723396 -1280.413905855273 -1376.1959185302965 0 0 1
3770 252 5 0 -1916.851844200944 -1269.5404284030133 -1397.5221486287546 0 0 0
3772 252 7 2 -1748.2786755581124 -1247.9861205868046 -1388.3557869631525 0 0 0
3776 252 11 1 -1708.0389658865513 -1248.354243177761 -1423.8110924425405 0 0 0
2561 171 11 1 -1106.1571543636867 -1212.8636773496985 -1413.7436182515314 0 0 1
2559 171 9 0 -1046.7856440211287 -1244.00366872695 -1405.5272916131373 0 0 1
2556 171 6 -0.5 -991.8913465794701 -1246.086070092221 -1401.2796982690106 0 0 1
2564 171 14 -1.5 -950.9256122679031 -1246.6201969758436 -1418.54902729814 0 0 1
2562 171 12 0 -1264.8957130828396 -1129.526005794328 -1386.0600854644563 0 0 1
2560 171 10 1 -1208.13650560165 -1158.93738195283 -1403.5258618744529 0 0 1
2557 171 7 2 -1151.336602276965 -1183.2409498873972 -1406.5238413175077 0 0 1
1082 73 2 0 -2477.3383716471462 -1051.9133105884066 -1403.700434904266 0 0 1
1094 73 14 -1.5 -2380.8993272653493 -1088.1963977743499 -1422.970370580115 0 0 1
1084 73 4 0 -2533.070691685521 -1030.6847589825707 -1410.7839299979723 0 0 1
1095 73 15 0 -2426.729136703601 -1046.2631921109485 -1414.4026046056356 0 0 1
1815 121 15 0 -2775.989444846513 -570.0068744553256 -1416.0839071010473 0 0 0
5521 369 1 0 -2733.5585590018304 -551.1393446810514 -1406.6895806179218 0 0 0
5528 369 8 0 -2765.2913563435536 -529.7915861940409 -1368.670956482128 0 0 0
1809 121 9 0 -2773.3110744911382 -503.2143066550001 -1418.6694505018143 0 0 0
1811 121 11 1 -2736.904315059615 -460.8530833791283 -1383.6536053887849 0 0 0
1807 121 7 2 -2709.780911623507 -418.07198473190664 -1364.5236648557452 0 0 0
5533 369 13 -0.5 -2696.873544791224 -380.41630625972743 -1376.7892799583922 0 0 0
963 65 3 -1.5 -2665.8877963943296 -435.3194674378743 -1356.0494895775248 0 0 0
972 65 12 0 -2651.442076142414 -394.12585598652424 -1384.029010301014 0 0 0
1810 121 10 1 -2677.149595848028 -366.65247778837715 -1354.0492071364258 0 0 0
970 65 10 1 -2618.952993102118 -340.0162368395787 -1381.8454916737182 0 0 0
2584 173 4 0 -1795.1957304248074 -304.08606675521173 -1400.9211339016126 0 0 1
2938 196 13 -0.5 -2558.295830824072 -298.960234314163 -1373.814836246462 0 0 0
967 65 7 2 -2594.631849827225 -286.72490132737414 -1362.5138801523608 0 0 0
2926 196 1 0 -2756.7749590152785 -193.5435030906821 -1368.0094417517414 0 0 0
1808 121 8 0 -2726.476414223209 -153.34752321685946 -1411.4323661033293 0 0 0
1805 121 5 0 -2663.8211996578502 -219.54657487722713 -1382.2553037087573 0 0 0
1053 71 3 -1.5 -757.5437943067709 72.85406876011162 -1423.0777797169733 0 0 0
1060 71 10 1 -729.279687567681 177.22748733170565 -1401.4395855210787 0 0 0
1057 71 7 2 -705.952227078614 229.3079133491707 -1378.471466081413 0 0 0
1723 115 13 -0.5 -680.3807143519098 242.00753105345822 -1405.5715436047958 0 0 0
1061 71 11 1 -675.3987638237807 270.3509597046696 -1360.6484167059666 0 0 0
1713 115 3 -1.5 -659.638755339932 261.22441592390624 -1373.1310218126696 0 0 0
1722 115 12 0 -617.4004899377908 286.10541636279186 -1367.0824201015826 0 0 0
1059 71 9 0 -641.0049533367976 326.4160927509838 -1358.4168219357239 0 0 0
1056 71 6 -0.5 -594.0721151441928 354.72717546565985 -1362.732700276177 0 0 0
1064 71 14 -1.5 -550.9115980941633 353.70796329897235 -1373.3107680983564 0 0 0
1720 115 10 1 -578.1699208537866 333.60352501202664 -1360.526149521845 0 0 0
1422 95 12 0 -1613.3837157346804 435.24107606951236 -1376.3956755231247 0 0 0
4926 329 6 -0.5 -1805.2319511908447 496.11897812176716 -1367.320802410326 0 0 0
4929 329 9 0 -1785.524094669307 515.6499283322711 -1418.0930272519481 0 0 0
4935 329 15 0 -1745.9713163540573 499.34870740836766 -1353.2990995325347 0 0 0
1415 95 5 0 -1536.0232089588999 470.17714266321997 -1378.2900344135576 0 0 0
1418 95 8 0 -1487.2654462966368 482.42234266519034 -1398.7155995365376 0 0 0
1411 95 1 0 -1438.6345420888786 499.98778805395483 -1392.5627536806692 0 0 0
1712 115 2 0 -497.2519495092605 605.9125081002331 -1351.6484376555366 0 0 0
4236 283 6 -0.5 -2022.8080420166116 1117.0006862381201 -1392.8712276740498 0 0 0
4359 291 9 0 -2053.4375819030047 1156.9664088202258 -1388.1297558483489 0 0 0
4245 283 15 0 -1974.4230089316716 1143.8724326686743 -1387.537929482968 0 0 0
4481 299 11 1 -2002.3320955339693 1179.1653973659845 -1408.6948473270993 0 0 0
4479 299 9 0 -1975.6161730389424 1184.4215047874961 -1350.2479742260832 0 0 0
4232 283 2 0 -1934.1426793303476 1190.7137050621914 -1394.1913630777935 0 0 0
2401 161 1 0 -2274.4217645321914 1246.1820064606825 -1352.1116846445275 0 -1 0
4234 283 4 0 -1870.9379122124642 1213.2687198905237 -1410.071332115169 0 0 0
2410 161 10 1 -2212.4037530025903 -1457.8749333220264 -1301.5685787583911 0 0 0
2554 171 4 0 -1071.677217338367 -1385.0873266176238 -1292.074614650262 0 0 1
2552 171 2 0 -1042.6693176211509 -1349.4419596708897 -1339.0613912569945 0 0 1
3768 252 3 -1.5 -1892.557895812032 -1220.2423649578982 -1296.8598126832455 0 0 0
3777 252 12 0 -1854.516418532044 -1245.743573553403 -1325.9779111579028 0 0 0
3775 252 10 1 -1797.5848033582736 -1242.9401633221282 -1349.9535281861267 0 0 0
2563 171 13 -0.5 -1338.0693697025063 -1127.200741261819 -1343.0083467254362 0 0 1
2553 171 3 -1.5 -1295.5092769793698 -1124.6029196622997 -1346.8593629076597 0 0 1
5525 369 5 0 -2721.4822645011463 -489.5318540546497 -1328.7180704231057 0 0 0
916 62 1 0 -850.0154896566154 -491.4474844915296 -1307.3593389183152 0 0 0
973 65 13 -0.5 -2704.189112751604 -449.67798842008074 -1342.1010587172373 0 0 0
5532 369 12 0 -2681.1663567963474 -398.0760779960441 -1295.5744858017674 0 0 0
5523 369 3 -1.5 -2674.9689479841954 -381.08976416189563 -1340.3972491784511 0 0 0
1812 121 12 0 -2634.3969858809396 -321.1538995773614 -1333.6444712094335 0 0 0
1803 121 3 -1.5 -2584.1356108793834 -313.06765534605836 -1326.4525819241396 0 0 0
971 65 11 1 -2575.7622747164246 -238.10995172011303 -1349.109444734707 0 0 0
1813 121 13 -0.5 -2561.103780517986 -279.4613733858824 -1340.0671159001568 0 0 0
2928 196 3 -1.5 -2544.3311022799544 -299.4887576859276 -1333.1223468323956 0 0 0
2937 196 12 0 -2539.6118830756127 -262.0505773338775 -1301.3363881246314 0 0 0
2933 196 8 0 -2705.818886287922 -215.77453764921734 -1341.186607381323 0 0 0
2930 196 5 0 -2617.6410790793593 -220.05379704230893 -1334.0958649237118 0 0 0
969 65 9 0 -2539.1417887794523 -192.27333598764665 -1322.36824811409 0 0 0
966 65 6 -0.5 -2495.317098993347 -176.6925256510835 -1290.012111661838 0 0 0
975 65 15 0 -2538.3604428674766 -178.6621734726986 -1282.3594841888037 0 0 0
974 65 14 -1.5 -2451.509926172269 -177.80524079371088 -1283.4028528398073 0 0 0
658 44 13 -0.5 -212.01039683385412 -56.53461316970813 -1276.5776610510268 0 0 0
1715 115 5 0 -606.8920148343399 230.99203448080087 -1283.534357693768 0 0 0
1065 71 15 0 -625.7437600263873 353.60996422924734 -1308.6090913736098 0 0 0
4924 329 4 0 -1660.6314363328086 437.5613513092225 -1284.8855770895805 0 0 0
1717 115 7 2 -536.8620720152916 375.7529032633225 -1344.5597795953545 0 0 0
1052 71 2 0 -590.1521668240403 401.757769808195 -1277.105540647417 0 0 0
1721 115 11 1 -500.66912746913454 410.02108444101515 -1323.0067670564833 0 0 0
4934 329 14 -1.5 -1838.0987713392278 492.2577481886764 -1338.168240350503 0 0 0
4922 329 2 0 -1705.7039105552976 470.9387763046919 -1316.8844609367834 0 0 0
1417 95 7 2 -1677.5056866636628 505.6055507190905 -1294.686486352629 0 0 0
1420 95 10 1 -1648.5796359510732 466.8167961019539 -1333.0968360105242 0 0 0
1719 115 9 0 -459.27541005715324 458.1737020598535 -1306.1171887550188 0 0 0
1725 115 15 0 -448.34932433264896 498.38224618794794 -1330.5816810129468 0 0 0
1716 115 6 -0.5 -410.5863877314296 482.6408689502031 -1294.6378438488734 0 0 0
1714 115 4 0 -509.95793503905116 664.5325397987538 -1349.7081472400482 0 0 0
1412 95 2 0 -1758.0036215442647 738.8483051795442 -1275.5074210972837 0 0 0
1414 95 4 0 -1766.49308134994 792.5322155497912 -1296.3496526000567 0 0 0
4239 283 9 0 -2027.8702159187872 1113.6974238883931 -1341.2732889112092 0 0 0
4472 299 2 0 -1929.3892677814338 1087.0701080895526 -1299.0837319866666 0 0 0
4361 291 11 1 -2076.816774264689 1160.6238389385046 -1326.0908575970918 0 0 0
4241 283 11 1 -2050.17009174687 1129.9757652247947 -1280.9473697729636 0 0 0
4485 299 15 0 -1957.0063889681928 1154.5591463437374 -1330.5725741121232 0 0 0
4476 299 6 -0.5 -1932.376834501715 1188.4959490839396 -1318.4392155422486 0 0 0
4264 285 4 0 -237.0269973522292 1198.5212357266662 -1347.0904443250129 0 0 0
4484 299 14 -1.5 -1904.217876989102 1213.6719895870533 -1295.2335259846786 0 0 0
4262 285 2 0 -278.6198658325886 1210.7504745053684 -1309.2854991902936 0 0 0
2408 161 8 0 -2254.172760406116 1302.5452392478016 -1344.6137589666785 0 -1 0
2405 161 5 0 -2251.0183564706217 1394.8291228117023 -1336.8927084276172 0 -1 0
5374 359 4 0 -335.37726516012617 -1481.249590539128 -1233.106400579382 0 1 0
2411 161 11 1 -2235.2641316743407 -1388.5670491061514 -1211.4103136395615 0 0 0
2407 161 7 2 -2222.014961461007 -1420.5107036359116 -1253.3344579249563 0 0 0
2404 161 4 0 -2350.912327895463 -1215.9129688950502 -1268.1475020693379 0 0 0
2402 161 2 0 -2343.171786982471 -1252.0413360458447 -1227.076946281258 0 0 0
3778 252 13 -0.5 -1903.282047254437 -1220.0247219400173 -1254.9191252875264 0 0 0
3856 258 1 0 -602.4602901262388 -1244.5312715553696 -1216.9379792246723 0 0 0
5530 369 10 1 -2664.30039455373 -402.64478837189324 -1236.5319494370576 0 0 0
923 62 8 0 -848.0872395439236 -445.2772399155635 -1267.0031086404058 0 0 0
920 62 5 0 -884.6729832108749 -407.2786885149666 -1205.2900967365586 0 0 0
2935 196 10 1 -2503.8600225570754 -216.3584868674912 -1273.9424501825727 0 0 0
2932 196 7 2 -2473.1678994945505 -167.13798300436935 -1252.1029873507782 0 0 0
653 44 8 0 -344.4974822010667 -212.70922572673027 -1208.5340072856707 0 0 0
650 44 5 0 -267.3297129092669 -150.45920027465434 -1219.1495989727734 0 0 0
962 65 2 0 -2534.046040462067 -147.04595557305512 -1232.0039678001638 0 0 0
964 65 4 0 -2522.3724363496253 -112.83439266749059 -1200.2186112719498 0 0 0
2936 196 11 1 -2449.332988837185 -122.69247430812139 -1233.8714957037266 0 0 0
2934 196 9 0 -2402.9197642060144 -79.67267012831657 -1220.7850798414177 0 0 0
648 44 3 -1.5 -185.5646717604491 -76.00359650600507 -1248.8982136881195 0 0 0
657 44 12 0 -198.25540786146956 -92.95569260719788 -1200.8968710363947 0 0 0
1718 115 8 0 -618.1014588778972 195.88283211251786 -1239.0286733934843 0 0 0
1054 71 4 0 -587.1372854071856 448.00203784530333 -1252.4576715324013 0 0 0
3016 202 1 0 -866.8287678266507 501.5084023924774 -1205.9989169606304 0 0 0
2389 160 4 0 -710.9902075071127 461.57571869076617 -1216.576870304575 0 0 0
1724 115 14 -1.5 -386.0924449275655 507.4105990697948 -1267.4422174528163 0 0 0
1419 95 9 0 -1737.434324431221 593.4492538833895 -1238.7751542326275 0 0 0
1421 95 11 1 -1702.0971987064243 544.4324992712008 -1265.2855327994732 0 0 0
1424 95 14 -1.5 -1817.2883685677657 631.1763170592986 -1211.2897832728247 0 0 0
1425 95 15 0 -1769.4195106301552 656.1200738964251 -1273.0120981207508 0 0 0
1416 95 6 -0.5 -1776.243675725143 624.8185220192167 -1226.445043627033 0 0 0
4474 299 4 0 -1893.4221548063579 1061.0720390347371 -1266.106138142489 0 0 0
4351 291 1 0 -2327.7669583534607 1193.6770854769543 -1246.109118948572 0 0 0
4360 291 10 1 -2112.3957490445177 1156.8040008971036 -1215.95619395098 0 0 0
4357 291 7 2 -2092.059349246626 1155.6517655764032 -1273.8586880760704 0 0 0
4237 283 7 2 -2065.8304014318023 1156.3944390824238 -1236.2189942813895 0 0 0
4231 283 1 0 -2288.6566350352305 1273.5923761553604 -1263.8276238507667 0 0 0
4358 291 8 0 -2292.144412360019 1203.5050235283484 -1209.4536603224356 0 0 0
4185 279 15 0 -546.0023549294106 1246.2622259414559 -1206.5815565725784 0 0 0
4275 285 15 0 -354.11732282144146 1251.5288798292818 -1254.1076089110404 0 0 0
4238 283 8 0 -2260.69331000669 1304.7946680064526 -1214.6193085625846 0 0 0
5381 359 11 1 -483.472035638568 1309.8305573479472 -1206.967377624724 0 0 0
4904 327 14 -1.5 -498.9449115098988 1294.9447577756514 -1200.8334340128156 0 0 0
5379 359 9 0 -422.1932476858898 1326.731033041051 -1226.6068172827897 0 0 0
5376 359 6 -0.5 -368.48299411842873 1321.3567994762402 -1231.4992289036109 0 0 0
5384 359 14 -1.5 -327.73154134711547 1338.1064571923887 -1237.2225703192173 0 0 0
5385 359 15 0 -379.48031005316284 1388.6780782062644 -1207.4809362633089 0 0 0
5372 359 2 0 -363.8239881817694 1473.0249301049619 -1212.5473796763988 0 0 0
3619 242 4 0 -165.63636507490526 1427.759530814662 -1220.255919363441 0 -1 0
2415 161 15 0 -2290.291210765919 -1290.043344324236 -1171.0106559775604 0 0 0
2409 161 9 0 -2252.0961651173116 -1345.746241861893 -1165.859694884589 0 0 0
2406 161 6 -0.5 -2280.2078207919894 -1314.97014549263 -1128.5389352130019 0 0 0
3628 242 13 -0.5 -503.6936271280183 -1313.3694077172722 -1159.7924709863726 0 0 0
3618 242 3 -1.5 -496.526319119856 -1347.5667171818045 -1134.3244289186148 0 0 0
3863 258 8 0 -582.8625478494705 -1255.6925925400076 -1163.4540571482635 0 0 0
253 17 13 -0.5 -1200.608379214438 -600.5406795616566 -1134.6043839777276 0 0 0
1614 108 9 0 -1153.9037890881837 -531.1486943914864 -1149.394404297533 0 0 0
1620 108 15 0 -1163.2853043194878 -452.59379643449324 -1154.7480114622754 0 0 0
1619 108 14 -1.5 -1068.1412088823054 -492.76570199767224 -1155.7548010980458 0 0 0
1611 108 6 -0.5 -1112.04488128664 -498.1412754295641 -1153.8023941530184 0 0 0
247 17 7 2 -1079.6615160166075 -464.1366349987624 -1130.9902383165597 0 0 0
5527 369 7 2 -2637.5027640198764 -411.58908843547766 -1181.9963128584545 0 0 0
5531 369 11 1 -2624.6723583277567 -422.61957860331955 -1130.015431960325 0 0 0
251 17 11 1 -1031.4104884126616 -445.680941843911 -1146.2837826003256 0 0 0
249 17 9 0 -966.5199359048321 -431.9111124890663 -1148.9660111441237 0 0 0
246 17 6 -0.5 -919.8757011952855 -409.2834858376649 -1159.6444849011225 0 0 0
1607 108 2 0 -1201.3557245591985 -370.5343476242157 -1143.8529601468194 0 0 0
254 17 14 -1.5 -898.6379067090919 -370.9164467613515 -1164.8727107123186 0 0 0
646 44 1 0 -370.48810046532407 -277.5349001268322 -1186.6437991846353 0 0 0
3121 209 1 0 -1317.6984275517523 -220.77408231608413 -1181.2861554936746 0 0 0
3128 209 8 0 -1318.606865917113 -164.35923273013654 -1190.6923384137854 0 0 0
3125 209 5 0 -1274.7330752060748 -104.59577325738435 -1140.9605092557938 0 0 0
655 44 10 1 -184.93173150951213 -101.1731109424318 -1139.5283291972798 0 0 0
2940 196 15 0 -2411.341676719173 -13.1770540491481 -1174.177542064874 0 0 0
2931 196 6 -0.5 -2358.222742014614 -55.94841892369699 -1195.9236865331914 0 0 0
2939 196 14 -1.5 -2323.8540991575833 -27.90668420258041 -1196.4047912376504 0 0 0
2927 196 2 0 -2442.972505330009 65.84474845581589 -1168.91836672562 0 0 0
3133 209 13 -0.5 -1234.9315799778778 0.4113302644484212 -1126.5480295338964 0 0 0
2929 196 4 0 -2439.1984517443148 127.0889728765664 -1163.1547391612182 0 0 0
1711 115 1 0 -602.5999428159084 184.20208555504908 -1181.435920368145 0 0 0
3023 202 8 0 -861.5971810484457 491.8685561081894 -1166.9766596511533 0 0 0
2387 160 2 0 -682.8003888563229 472.4256202722514 -1160.9139653436464 0 0 0
5161 345 1 0 -2061.36200306647 607.756788252129 -1146.3228143951587 0 0 0
4652 311 2 0 -931.273342156878 995.4962109451649 -1138.4465165192319 0 0 0
4654 311 4 0 -882.8023998709498 1013.0289793057624 -1157.1447458540742 0 0 0
4362 291 12 0 -2134.7859861006227 1166.9697131024113 -1153.7093390145087 0 0 0
4240 283 10 1 -2088.3897106945365 1182.425390542914 -1184.6761282582675 0 0 0
4175 279 5 0 -874.4917219020394 1181.2734025358993 -1187.2217008148214 0 0 0
4182 279 12 0 -822.9642130019395 1144.3749733244472 -1140.110248201829 0 0 0
4180 279 10 1 -766.0422963804334 1168.772214372763 -1149.0812757332571 0 0 0
2176 146 1 0 -821.871161436364 1192.2432857140175 -1141.140152491218 0 0 0
4177 279 7 2 -710.1256876335183 1189.9088949094069 -1163.2073610814705 0 0 0
4897 327 7 2 -677.1731652581103 1199.9498681862501 -1131.1955868003415 0 0 0
4355 291 5 0 -2224.587601606144 1203.197971958648 -1159.943253722073 0 0 0
4242 283 12 0 -2104.3398710399065 1218.8488377739427 -1132.82798982826 0 0 0
4171 279 1 0 -998.7523898119036 1228.5484790405765 -1188.3675086661558 0 0 0
4178 279 8 0 -933.0335090820166 1230.0394367298425 -1196.4658114741676 0 0 0
5373 359 3 -1.5 -692.2497134987748 1255.850217085082 -1153.9893279337082 0 0 0
5383 359 13 -0.5 -709.9638884851767 1220.7935137770187 -1136.5311316569287 0 0 0
4273 285 13 -0.5 -694.1412561883943 1236.1376554645103 -1135.4259532461267 0 0 0
5631 376 6 -0.5 -693.1251941711315 1216.003196174329 -1130.050542142227 0 0 0
4181 279 11 1 -665.3166267088903 1213.3561316096755 -1182.1681262728705 0 0 0
4901 327 11 1 -634.4603046505512 1227.0529697645195 -1150.0066355374252 0 0 0
4179 279 9 0 -615.3494559691061 1257.4865005962276 -1192.6914732379043 0 0 0
4263 285 3 -1.5 -652.3757250948368 1227.5794443228986 -1132.061216103559 0 0 0
5639 376 14 -1.5 -651.1580178310846 1230.024008514567 -1126.3388655105614 0 0 0
4899 327 9 0 -576.639458592063 1248.8463581401559 -1168.8657851235728 0 0 0
4172 279 2 0 -473.26612565464825 1250.7214021667687 -1199.311078178452 0 0 0
4905 327 15 0 -513.7783193040618 1249.6158530682949 -1133.3547458237542 0 0 0
4174 279 4 0 -423.2464700334955 1264.2669641077196 -1174.101352595761 0 0 0
4235 283 5 0 -2203.2620055353004 1303.272388092512 -1175.4868313971838 0 0 0
5382 359 12 0 -654.0099975168977 1279.0555291983965 -1140.8643699741249 0 0 0
4270 285 10 1 -556.0769941426491 1279.554144436567 -1135.5624541309392 0 0 0
4896 327 6 -0.5 -531.1454817556316 1280.6807633891144 -1173.4940593686515 0 0 0
4176 279 6 -0.5 -582.8888311554499 1300.1766741613344 -1189.0538897502438 0 0 0
4184 279 14 -1.5 -556.5168041005672 1321.7904221170675 -1159.9276667978654 0 0 0
5380 359 10 1 -588.4015569644051 1294.4553947942093 -1161.4851638455568 0 0 0
5377 359 7 2 -532.5259907899568 1306.4727748770724 -1185.160181526546 0 0 0
4267 285 7 2 -498.56359874029386 1296.683459815262 -1150.6829173227645 0 0 0
4271 285 11 1 -448.77402555064907 1311.8714922391716 -1168.406490060518 0 0 0
4269 285 9 0 -387.16686936299726 1312.889147628629 -1191.8839038896124 0 0 0
4266 285 6 -0.5 -333.7508858071461 1303.7603429655799 -1191.4093506443548 0 0 0
4274 285 14 -1.5 -297.96443463948094 1288.8070134750706 -1171.100272164075 0 0 0
4261 285 1 0 -810.91878304833 1399.956151673314 -1183.4837810382733 0 0 0
4268 285 8 0 -795.7549560542377 1383.2056660690778 -1129.9589600968777 0 0 0
3617 242 2 0 -189.97024127556136 1452.9288782719009 -1173.279569572633 0 -1 0
3630 242 15 0 -244.425259185089 -1499.7517361322875 -1102.1844614020358 0 0 0
3627 242 12 0 -471.80591030366014 -1356.6144631253467 -1093.289106052405 0 0 0
3625 242 10 1 -415.93837084457755 -1370.283671295902 -1069.7664511334042 0 0 0
3868 258 13 -0.5 -393.75818257794793 -1359.5439152391104 -1108.9028668914711 0 0 0
3622 242 7 2 -360.6069396627457 -1390.2492991967697 -1052.366532787589 0 0 0
2414 161 14 -1.5 -2314.678383649473 -1307.5209756167205 -1101.2235606325153 0 0 0
3860 258 5 0 -532.5660846990397 -1283.659430861791 -1096.3749701703618 0 0 0
3867 258 12 0 -449.15430761310745 -1324.2960203107416 -1054.9262312678088 0 0 0
3858 258 3 -1.5 -429.783430075974 -1337.5985031630287 -1099.2427884741765 0 0 0
1318 88 13 -0.5 -76.08943439102656 -867.2739408302727 -1070.4893472651997 0 0 0
1618 108 13 -0.5 -1288.5818563706414 -808.1689647581278 -1107.3706300652882 0 0 0
1608 108 3 -1.5 -1274.0376358068684 -782.997289429358 -1075.8928836120801 0 0 0
2660 178 5 0 -116.1531244446788 -752.2936957412087 -1077.8879883611942 0 0 0
2667 178 12 0 -74.87530310651867 -818.319365759359 -1084.360844634239 0 0 0
2665 178 10 1 -17.33641409957882 -802.8898592764704 -1108.324771242144 0 0 0
3436 230 1 0 -2035.6493754249698 -701.0403870604989 -1053.4414937979432 0 0 0
1606 108 1 0 -1496.5088490406545 -677.7060662755468 -1054.9313765114691 0 0 0
1613 108 8 0 -1445.5568907187408 -715.134101907032 -1075.2179321638284 0 0 0
1610 108 5 0 -1357.1237958297984 -723.8393922531296 -1056.31827625011 0 0 0
1617 108 12 0 -1272.5227835171825 -731.5549538027653 -1074.726982301664 0 0 0
1615 108 10 1 -1254.3622247841083 -676.1029680416285 -1101.0929390598467 0 0 0
2663 178 8 0 -185.67712970895016 -702.3299200814897 -1109.8114925304315 0 0 0
1612 108 7 2 -1222.5686059970747 -624.7055561468815 -1111.4934707913903 0 0 0
2656 178 1 0 -187.9034788039922 -636.8483380062104 -1102.5735330966168 0 0 0
243 17 3 -1.5 -1207.572599335412 -564.7024019591227 -1112.3421326495263 0 0 0
1616 108 11 1 -1190.9388690275669 -581.9257959330247 -1122.4939451884986 0 0 0
252 17 12 0 -1183.517464381156 -526.644081462663 -1102.8012537817156 0 0 0
5535 369 15 0 -2572.816391590263 -461.3910640277851 -1050.3902254661098 0 0 0
250 17 10 1 -1131.3046633096003 -496.4499946381408 -1121.6706966089498 0 0 0
5529 369 9 0 -2600.889676621081 -426.5982229637579 -1070.6287763116109 0 0 0
928 62 13 -0.5 -964.7003954934933 -407.00102022862984 -1081.7798622764165 0 0 0
918 62 3 -1.5 -937.6280420615403 -397.6952595814359 -1114.236709975959 0 0 0
255 17 15 0 -902.946721766537 -444.17596919942406 -1101.5587675063937 0 0 0
927 62 12 0 -889.5198205282569 -396.9376718586168 -1119.7639837338756 0 0 0
242 17 2 0 -832.4647125923377 -423.4621526593184 -1111.9919392713725 0 0 0
925 62 10 1 -831.2271315293021 -376.33091094304837 -1099.6860063215893 0 0 0
5057 338 2 0 -794.2754507844073 -444.8281011623508 -1056.6231705074317 0 0 0
244 17 4 0 -782.4367545815015 -394.32105064988866 -1103.3440805857258 0 0 0
5070 338 15 0 -810.1715725027012 -385.18037870292346 -1059.0438893865576 0 0 0
1609 108 4 0 -1211.1213537742003 -317.1282912754321 -1120.4240562454077 0 0 0
5064 338 9 0 -829.1667919429998 -325.2364244025533 -1082.1471834287145 0 0 0
3378 226 3 -1.5 -757.0282985084394 -351.1082998442685 -1115.9717890580478 0 0 0
3388 226 13 -0.5 -798.7973924370746 -355.8130590291775 -1108.1370166437432 0 0 0
922 62 7 2 -781.1051520046958 -349.8672105473761 -1074.0132819087405 0 0 0
5061 338 6 -0.5 -776.4273996178177 -335.10787562936207 -1084.8813181296116 0 0 0
5069 338 14 -1.5 -741.4547357791054 -357.1056397404057 -1068.678498040039 0 0 0
3387 226 12 0 -724.5467385006312 -315.4696244719973 -1098.8537489068935 0 0 0
5065 338 10 1 -990.7552286195875 -245.5594504384028 -1095.3929745273747 0 0 0
3134 209 14 -1.5 -914.3647417985699 -236.3106792124177 -1092.8806740863017 0 0 0
5062 338 7 2 -935.7694485435393 -271.6634040386803 -1086.0871980201964 0 0 0
5066 338 11 1 -886.3684761233485 -291.86743256812525 -1081.14203671073 0 0 0
3376 226 1 0 -892.4136311071047 -258.4964070395685 -1059.43364229942 0 0 0
3380 226 5 0 -775.5293774622597 -275.6043169618178 -1073.2278267123052 0 0 0
3385 226 10 1 -672.4722054736519 -298.03459575824047 -1067.3094424351352 0 0 0
5068 338 13 -0.5 -1123.860352359241 -177.15069009933012 -1105.8700515085163 0 0 0
5058 338 3 -1.5 -1095.8873778645468 -209.48225421348704 -1104.8647717444346 0 0 0
3131 209 11 1 -1056.8117519752357 -162.65632232134598 -1087.4735028563678 0 0 0
5067 338 12 0 -1046.338006896304 -211.1543650827611 -1096.6555571982578 0 0 0
3129 209 9 0 -996.539245420291 -190.08683554881358 -1095.6117679672345 0 0 0
3126 209 6 -0.5 -956.8447867493372 -224.30602506326713 -1087.7590259265032 0 0 0
3135 209 15 0 -956.4536011250626 -197.9844162560033 -1052.269991992096 0 0 0
3130 209 10 1 -1162.7625143393564 -115.62642433184999 -1087.898378093852 0 0 0
3127 209 7 2 -1107.2351152222882 -143.27606993921455 -1090.203761063154 0 0 0
5431 363 1 0 -649.718965370605 -96.40130949559868 -1081.6594826337214 0 0 0
652 44 7 2 -162.19025378466597 -104.7805987914029 -1081.2857347408199 0 0 0
3132 209 12 0 -1210.865738188621 -72.63385347704501 -1089.9007023312206 0 0 0
3123 209 3 -1.5 -1230.4461840776296 -27.878028940975618 -1094.8895042375102 0 0 0
1292 87 2 0 -776.3958213037148 362.26657110740484 -1091.1287920273892 0 0 0
1294 87 4 0 -738.418482799501 347.7874822615962 -1117.4828487435918 0 0 0
994 67 4 0 -739.2742510025081 359.97758552630614 -1059.0008051716175 0 0 0
3109 208 4 0 -916.2642786872367 412.560095032342 -1075.360113187987 0 0 0
3027 202 12 0 -767.9467875113837 404.76217101852376 -1053.5813226699172 0 0 0
3025 202 10 1 -707.7829592498844 405.5747891114881 -1068.0487898674032 0 0 0
2399 160 14 -1.5 -631.3469234931998 380.1010528198211 -1103.7523080914743 0 0 0
3022 202 7 2 -647.2430816160344 404.97578824642216 -1075.9799651049636 0 0 0
2391 160 6 -0.5 -640.6655477180633 391.39087277143705 -1062.0389672701651 0 0 0
3026 202 11 1 -593.9959024145936 397.10009007616435 -1076.5670260758038 0 0 0
3024 202 9 0 -528.20856137833 393.10748525011115 -1087.0876075273814 0 0 0
3021 202 6 -0.5 -475.5950663730735 378.9182837694852 -1085.454037967684 0 0 0
3029 202 14 -1.5 -435.30051840695523 376.5863826394065 -1104.165927765003 0 0 0
3020 202 5 0 -814.7087186661568 482.63209524737096 -1110.473037116734 0 0 0
2400 160 15 0 -666.4686268766795 454.34851717183517 -1083.0789877899651 0 0 0
5168 345 8 0 -2037.341980915295 628.6323280859567 -1075.448086106799 0 0 0
3511 235 1 0 -1487.1066106321969 655.2526502865114 -1062.991055167645 0 0 0
3523 235 13 -0.5 -1287.6066848436808 640.7442723960623 -1065.1449693603781 0 0 0
4665 311 15 0 -975.8227764761529 963.7088930613285 -1097.0955147619638 0 0 0
5638 376 13 -0.5 -928.0215378683829 961.2992162038001 -1089.1404168518447 0 0 0
4090 273 10 1 -966.0345128358128 947.129047775789 -1052.8988832421196 0 0 0
5164 345 4 0 -2144.2906408963886 978.0528877955957 -1062.6789595277899 0 0 0
5162 345 2 0 -2099.173018278122 988.3466664118407 -1067.5564819256022 0 0 0
5175 345 15 0 -2024.3542813334402 976.8779036057434 -1052.946887537697 0 0 0