LAMMPS data file via write_data, version 27 Jun 2024, timestep = 6080000, units = real

5730 atoms
15 atom types
5444 bonds
16 bond types
5730 angles
15 angle types

-3000 3000 xlo xhi
-1500 1500 ylo yhi
-1500 1500 zlo zhi

Masses

1 241.19
2 73.54000000000001
3 330.71
4 235.16
5 68.06999999999999
6 353.53
7 223.38
8 41.1
9 216.91
10 155.15
11 147.32
12 264.65
13 300.8
14 326.05
15 85.20999999999999

Pair Coeffs # lj/cut/coul/debye/gpu

1 0.71637 40.7505
2 0.665709 48.1397
3 1.15033 39.2216
4 0.726774 43.8077
5 0.514724 53.3428
6 1.17127 41.7847
7 1.2256 38.5601
8 0.675431 54.5696
9 1.26117 43.78
10 0.939007 42.5209
11 0.960667 41.1825
12 1.30988 48.0761
13 1.36645 37.7114
14 1.35529 39.2179
15 0.592003 47.2602

Bond Coeffs # harmonic

1 0.003 59.228
2 0.008 56.48
3 0.001 69.324
4 3.207 42.88
5 0.11 49.807
6 0.002 74.968
7 0.001 91.635
8 0.145 54.383
9 2.709 44.406
10 1.71 61.679
11 1.625 54.051
12 0.207 66.185
13 0.002 64.76
14 0.079 63.886
15 0.2 40
16 0.2 40

Angle Coeffs # harmonic

1 11.427 158.273
2 50.464 132.042
3 8.207 156.514
4 92.705 149.394
5 100 174.44
6 3.15 145.53
7 48.938 159.031
8 17.401 129.945
9 15.735 56.441
10 60 172.254
11 60.285 168.396
12 11.83 99.091
13 150 107.995
14 27.746 149.925
15 7.483 160.775

Atoms # full

2405 161 5 0 -2384.676683284624 -1314.6485818490116 -1490.0923978273904 0 0 0
3623 242 8 0 -330.4641694415424 -1269.8209016435699 -1478.3160335559583 0 0 0
1813 121 13 -0.5 -2566.2792274162584 -608.0404871916829 -1438.1284011218363 0 0 0
2589 173 9 0 -1672.4053338617623 -426.2162466674924 -1466.94806925138 0 0 1
2586 173 6 -0.5 -1622.2602604717213 -421.7908111531545 -1440.3676768175528 0 0 1
2594 173 14 -1.5 -1584.267884635238 -400.7576992562516 -1432.5816325933254 0 0 1
1074 72 9 0 -372.59771992595 -283.4529439481188 -1469.310392026719 0 0 1
1080 72 15 0 -335.2330424919151 -248.81651559203104 -1458.8761789554721 0 0 1
1067 72 2 0 -299.81613801789547 -181.87193831582985 -1492.070472975345 0 0 1
2930 196 5 0 -2561.2947626297737 -114.85018042456247 -1449.1747777849216 0 0 0
962 65 2 0 -2353.2747316383 -130.48644684504401 -1441.8149332447456 0 0 0
964 65 4 0 -2307.4563515957902 -96.88698346956281 -1447.717994669348 0 0 0
648 44 3 -1.5 -318.3541317992386 -10.023778309401159 -1453.721790142302 0 0 0
658 44 13 -0.5 -341.40976383461157 0.10753112130047944 -1488.5651065978461 0 0 0
657 44 12 0 -277.31092427730175 8.621136844951497 -1434.8032074429607 0 0 0
650 44 5 0 -275.2801538131221 63.262382958106016 -1496.5780928474196 0 0 0
1058 71 8 0 -745.972584728324 398.0703844278458 -1432.0268647969588 0 0 0
4930 329 10 1 -1845.5360833099483 596.9356513360868 -1481.7657374581927 0 0 0
4921 329 1 0 -2050.9840373920324 655.9135233124172 -1492.927830929377 0 0 0
4927 329 7 2 -1833.3708707224266 633.5990505872221 -1433.19275707006 0 0 0
4483 299 13 -0.5 -2193.0696048006657 867.9511563086287 -1499.5039255329182 0 0 0
1401 94 6 -0.5 -2105.053866781514 907.3424553735956 -1495.2503294848523 0 0 1
1409 94 14 -1.5 -2070.223373410676 932.4784007813921 -1483.471731958343 0 0 1
4479 299 9 0 -1914.8360589250005 1009.2146440873067 -1497.1984485285655 0 0 0
4476 299 6 -0.5 -1879.2336647114903 1021.0443832732597 -1457.841856041846 0 0 0
4484 299 14 -1.5 -1842.3854368584816 1014.9420756034538 -1434.0167631035363 0 0 0
4485 299 15 0 -1909.2459356676502 1073.2090098874312 -1470.0139475849294 0 0 0
5626 376 1 0 -1008.4715755492306 1193.7118412382629 -1453.4237021977608 0 0 0
2413 161 13 -0.5 -2440.772958269128 -1381.82577856442 -1387.7467694088045 0 0 0
2403 161 3 -1.5 -2398.869711859219 -1378.225237038749 -1379.6603764636636 0 0 0
2412 161 12 0 -2358.4326159969146 -1392.6859990963528 -1404.5725698286226 0 0 0
2410 161 10 1 -2298.2167958538107 -1407.9305755272426 -1411.5060552792525 0 0 0
2411 161 11 1 -2184.0933923919983 -1419.561984005995 -1411.2129514046749 0 0 0
2407 161 7 2 -2237.639316499513 -1415.0955863752117 -1414.8349672126553 0 0 0
2409 161 9 0 -2121.645789900412 -1420.6740426501465 -1386.5852806402077 0 0 0
2406 161 6 -0.5 -2076.215318691424 -1399.9458101302375 -1364.4319175667572 0 0 0
3620 242 5 0 -365.7061685785188 -1292.394604241986 -1410.3945153191437 0 0 0
3767 252 2 0 -1756.869514359057 -1103.1947515639743 -1381.580071716376 0 0 0
3769 252 4 0 -1707.7009029951525 -1099.6073793793832 -1396.8795215543278 0 0 0
1803 121 3 -1.5 -2539.8365885945595 -627.5850128936062 -1410.0850866127448 0 0 0
1812 121 12 0 -2520.815633726555 -606.6519713952252 -1369.158181787917 0 0 0
2584 173 4 0 -1672.9409741682737 -608.4453584545462 -1364.2119833027757 0 0 1
2582 173 2 0 -1650.3553677361888 -560.5652969600937 -1383.5457064603656 0 0 1
2595 173 15 0 -1650.4144008997675 -477.89401555995005 -1416.9977896187222 0 0 1
973 65 13 -0.5 -2699.4874423529263 -386.8906777756944 -1395.0280778836889 0 0 0
963 65 3 -1.5 -2704.4712308635226 -344.74771335384213 -1394.1258903439 0 0 0
972 65 12 0 -2678.292335741614 -310.81319645599217 -1416.2405673048454 0 0 0
970 65 10 1 -2633.007654885927 -266.912654024766 -1419.6376244226565 0 0 0
1071 72 6 -0.5 -352.00033079685267 -267.6129264102881 -1419.6870868209826 0 0 1
1079 72 14 -1.5 -323.7379659837474 -273.47977378470375 -1385.4735505475703 0 0 1
2938 196 13 -0.5 -2625.9812663279645 -208.0324679627021 -1392.8691171326027 0 0 0
967 65 7 2 -2594.293490635739 -218.73739356016583 -1415.1595120268191 0 0 0
2928 196 3 -1.5 -2601.756402047528 -186.43733261432425 -1364.6323819396198 0 0 0
2937 196 12 0 -2553.371185681108 -170.43263935427962 -1362.8637280611813 0 0 0
971 65 11 1 -2552.932654979147 -186.65138571063005 -1408.323109758166 0 0 0
969 65 9 0 -2493.9103706630603 -161.002343242143 -1394.5508213642506 0 0 0
975 65 15 0 -2435.315222899975 -160.8604424708939 -1422.9062725791198 0 0 0
974 65 14 -1.5 -2407.095870864325 -136.478154736119 -1362.3792823367496 0 0 0
966 65 6 -0.5 -2450.1140479887954 -145.75051949396118 -1364.0952021939604 0 0 0
2929 196 4 0 -2131.441147907603 -87.85188853410428 -1377.4623287735924 0 0 0
2927 196 2 0 -2183.428599447692 -59.614182865979885 -1369.8548525786136 0 0 0
655 44 10 1 -231.886414684989 18.70385679605665 -1389.2341079147511 0 0 0
1051 71 1 0 -744.7795464114241 341.59040858059666 -1416.0078671756019 0 0 0
1415 95 5 0 -1747.2197338143071 415.18194670508916 -1423.1835106174246 0 0 0
1055 71 5 0 -728.7098416020768 457.18203113918605 -1388.844266292766 0 0 0
4931 329 11 1 -1825.611193150764 668.9900572369521 -1393.3308701867652 0 0 0
4683 313 3 -1.5 -2816.789574246856 797.3076699366841 -1373.4817978330836 0 0 0
4693 313 13 -0.5 -2806.9071012524537 825.4989312991601 -1403.9424604447486 0 0 0
4472 299 2 0 -1856.9263879826678 1139.7762644310749 -1418.3274949506153 0 0 0
4474 299 4 0 -1817.9118040328303 1179.1981965496207 -1400.4598492761227 0 0 0
5633 376 8 0 -968.498619353063 1167.4666653006052 -1407.5905034948464 0 0 0
2415 161 15 0 -2098.764870192096 -1434.5303219221116 -1339.6294455270445 0 0 0
2414 161 14 -1.5 -2035.2674382860496 -1404.5692354613336 -1347.083215331877 0 0 0
3628 242 13 -0.5 -447.4479229905778 -1313.1768991423223 -1327.4522911097931 0 0 0
3618 242 3 -1.5 -410.6259936356641 -1331.3002747268367 -1340.7369677320426 0 0 0
3627 242 12 0 -364.97912366020626 -1316.28552863483 -1342.1606980973 0 0 0
3625 242 10 1 -303.12497586580474 -1320.3542529975853 -1321.6697711335644 0 0 0
3622 242 7 2 -248.10136312984127 -1331.2492124522817 -1295.9405960679662 0 0 0
3774 252 9 0 -1790.4680203069074 -1137.2959461288458 -1277.91738810311 0 0 0
3780 252 15 0 -1784.8980942068713 -1122.3380888333093 -1334.107691956135 0 0 0
3771 252 6 -0.5 -1754.6609304435462 -1102.8788540289825 -1299.8803626685692 0 0 0
3779 252 14 -1.5 -1720.8223865087048 -1073.9901216840426 -1297.6965415965083 0 0 0
916 62 1 0 -1070.0654602104526 -606.787726021102 -1298.989167345593 0 0 0
1808 121 8 0 -2667.0998112892435 -548.7947838470691 -1322.2778143641697 0 0 0
1805 121 5 0 -2604.1968224666684 -576.9620732497547 -1324.2959455134608 0 0 0
1810 121 10 1 -2469.970412292246 -577.1981231521816 -1342.399863435851 0 0 0
1807 121 7 2 -2416.894944274461 -557.0784216002404 -1317.4083515347254 0 0 0
1811 121 11 1 -2370.479219154791 -542.7896712962164 -1293.3278303556842 0 0 0
1801 121 1 0 -2708.550834720175 -513.9833601704383 -1306.9816456128672 0 0 0
241 17 1 0 -1314.302321695577 -453.09913072968857 -1309.0183817147476 0 0 0
2935 196 10 1 -2491.113200564779 -163.5937723462747 -1342.162021290019 0 0 0
2932 196 7 2 -2432.164459248344 -150.08055641372965 -1333.1367644099298 0 0 0
2936 196 11 1 -2383.1123765900347 -130.45571439513637 -1325.1448877605349 0 0 0
2934 196 9 0 -2330.900848348083 -95.98513372518428 -1303.8255464583374 0 0 0
2940 196 15 0 -2277.9587585422028 -62.001050301627615 -1342.2498515688965 0 0 0
652 44 7 2 -201.64280544134658 35.971259745082676 -1337.4465444680006 0 0 0
656 44 11 1 -176.07995432021661 47.37189862546396 -1290.4577433118852 0 0 0
1423 95 13 -0.5 -1823.3729734509031 396.0991419927471 -1327.0720389378637 0 0 0
1413 95 3 -1.5 -1782.0189272149814 393.85585389264503 -1315.9625052380438 0 0 0
1422 95 12 0 -1739.4307501310186 418.73329188378386 -1330.2943242599838 0 0 0
1420 95 10 1 -1688.1058744814907 454.05596818763047 -1316.0968897813696 0 0 0
1417 95 7 2 -1639.5394131303854 487.9431898471603 -1297.557542157399 0 0 0
1062 71 12 0 -719.065229977828 491.99347880375853 -1291.609761627009 0 0 0
1416 95 6 -0.5 -1500.3271979117492 579.9792645247137 -1277.8894016428026 0 0 0
1063 71 13 -0.5 -793.6538649291599 532.7353444489088 -1304.0048306857566 0 0 0
1053 71 3 -1.5 -751.3477603512996 531.0513200018588 -1295.8677415098457 0 0 0
4681 313 1 0 -2908.032844095208 620.5788380077024 -1295.4473670875525 0 0 0
1424 95 14 -1.5 -1481.2971474862024 604.4323939050853 -1308.9375169327898 0 0 0
4688 313 8 0 -2886.4565295215066 679.9769131126608 -1312.7351786716417 0 0 0
4685 313 5 0 -2862.6117187181453 726.496144430722 -1329.4056950004983 0 0 0
4929 329 9 0 -1826.99044355427 706.5000880636732 -1337.6839993047445 0 0 0
4926 329 6 -0.5 -1812.8623358858877 729.5907457499004 -1290.173645347413 0 0 0
4692 313 12 0 -2821.661130681723 800.1188591674994 -1325.2018971579334 0 0 0
4935 329 15 0 -1853.8280784688748 770.9360685598039 -1323.3522367261332 0 0 0
4922 329 2 0 -1865.5296698240234 855.0617088702164 -1302.958576499988 0 0 0
4924 329 4 0 -1852.5994185465522 905.5349877449686 -1324.0296337394839 0 0 0
4903 327 13 -0.5 -807.3656024378145 1082.8625811989477 -1297.3707337510687 0 0 0
4893 327 3 -1.5 -815.051891796844 1119.3978662769803 -1276.3608244091497 0 0 0
4651 311 1 0 -1482.7102967050137 1143.8954498639944 -1283.0156252973618 0 0 0
5630 376 5 0 -964.0094160144245 1158.9674986007037 -1331.6137819339742 0 0 0
4273 285 13 -0.5 -611.5001772479764 1161.115719694414 -1280.7088600873335 0 0 0
4235 283 5 0 -2224.401338023093 1256.5787939227582 -1286.6792997659024 0 0 0
4895 327 5 0 -832.2084026544287 1218.1391523246766 -1276.980445690205 0 0 0
4175 279 5 0 -747.163540798843 1216.303281924417 -1286.4501012384942 0 0 0
4892 327 2 0 -462.0573769663258 1271.7861578385273 -1279.4410893734746 0 0 0
4238 283 8 0 -2262.1520950304807 1310.4297488932718 -1308.670782897731 0 0 0
4231 283 1 0 -2253.8991277893183 1346.2509902458446 -1285.3250759223297 0 0 0
4898 327 8 0 -867.5153091535896 1284.2048745757631 -1276.848551696196 0 0 0
4178 279 8 0 -703.7229455857737 1280.8010983389458 -1289.7498511025153 0 0 0
4171 279 1 0 -663.3276276654725 1314.2304467279928 -1310.5061127172914 0 0 0
4894 327 4 0 -440.03801312961167 1284.7720098859565 -1324.014554060084 0 0 0
2402 161 2 0 -2081.6975863805205 -1489.865048514767 -1240.6650415353918 0 0 0
3617 242 2 0 -18.767020615766246 -1406.4016531363045 -1236.7440650505582 0 0 0
3626 242 11 1 -200.10754987375228 -1334.961620433302 -1270.02391536388 0 0 0
3624 242 9 0 -143.94200605609356 -1320.9738522833984 -1236.2699755792266 0 0 0
3621 242 6 -0.5 -92.09197758676325 -1300.127911484825 -1225.3614676071124 0 0 0
3630 242 15 0 -79.46939843407897 -1343.7677153125805 -1246.534401894995 0 0 0
3629 242 14 -1.5 -64.67351052394159 -1267.2517380008896 -1212.735055270967 0 0 0
3775 252 10 1 -1951.591966031391 -1171.0642533227026 -1200.653934899941 0 0 0
3772 252 7 2 -1897.7060710123462 -1167.697497790509 -1231.2666957599686 0 0 0
3776 252 11 1 -1848.0932110404362 -1158.3404009234032 -1250.6860569946216 0 0 0
2668 178 13 -0.5 -233.6697764792873 -987.2945851359055 -1206.8795758084216 0 0 0
2658 178 3 -1.5 -243.3075722035494 -945.5029757682411 -1208.2339882311837 0 0 0
2667 178 12 0 -210.08814068880943 -905.1823053904698 -1208.5849356732604 0 0 0
2665 178 10 1 -150.15915035361192 -881.2154146403396 -1212.5763907680382 0 0 0
2662 178 7 2 -96.67614420769385 -855.6124993057374 -1232.2558393146824 0 0 0
2666 178 11 1 -48.20920604840409 -833.864009679274 -1244.0440960277954 0 0 0
1806 121 6 -0.5 -2261.409390520306 -545.1363696127219 -1243.6673649234556 0 0 0
1809 121 9 0 -2312.823009382843 -540.5350856930228 -1261.0592728232473 0 0 0
1814 121 14 -1.5 -2226.3515388475976 -571.0049895940807 -1237.448336823819 0 0 0
923 62 8 0 -1018.0173486384745 -592.9860841198831 -1264.4818407610583 0 0 0
1815 121 15 0 -2251.6263758105583 -496.3222223396944 -1273.8419728190956 0 0 0
248 17 8 0 -1321.547040066179 -492.2397062696217 -1248.771870739512 0 0 0
1609 108 4 0 -1157.0725944907847 -453.5490401085086 -1224.75536298637 0 0 0
1802 121 2 0 -2219.4803821213004 -420.9247201233885 -1255.09998451119 0 0 0
1804 121 4 0 -2238.2569784088478 -365.75287740768334 -1251.015710696855 0 0 0
2931 196 6 -0.5 -2289.175487219021 -86.08840875415846 -1273.756426364173 0 0 0
2939 196 14 -1.5 -2270.9954628657097 -80.00079727901539 -1234.0035114061486 0 0 0
3124 209 4 0 -770.3029938152346 -31.158632426964907 -1201.3542665212651 0 0 0
3121 209 1 0 -1175.6494645483124 36.39795881194851 -1258.1469122435321 0 0 0
3128 209 8 0 -1168.996698241498 19.42180913907522 -1209.2719173005028 0 0 0
654 44 9 0 -152.02586672661513 58.51888147166022 -1229.705871582189 0 0 0
1711 115 1 0 -542.6977002186387 368.0419073811814 -1213.4583275459945 0 0 0
1054 71 4 0 -396.9140791496498 320.4867536257292 -1221.9277865200006 0 0 0
1052 71 2 0 -417.007919075296 367.8139178079924 -1212.510182278454 0 0 0
991 67 1 0 -1187.4066007327297 386.5697253758497 -1215.7447210385303 0 0 0
1065 71 15 0 -453.9503765740314 444.9372318870532 -1217.3603221846893 0 0 0
1421 95 11 1 -1599.4044732802492 515.6455299891342 -1274.5547223800015 0 0 0
1060 71 10 1 -660.7635902228546 476.94687211558954 -1270.136746884736 0 0 0
1057 71 7 2 -610.0498932252623 465.01784692659 -1236.8491165258022 0 0 0
1061 71 11 1 -563.2614193155202 463.00351798993677 -1208.436448252718 0 0 0
5161 345 1 0 -2274.451747885647 588.2400321979025 -1229.8762442725056 0 0 0
1419 95 9 0 -1546.758443531043 551.6448828129718 -1263.2951302727965 0 0 0
1425 95 15 0 -1538.9923802036958 637.4325817153981 -1255.8190554867174 0 0 0
1412 95 2 0 -1509.6268622441203 706.5048836651861 -1238.0774921735851 0 0 0
4690 313 10 1 -2789.5393573607175 804.6169895252649 -1270.0165758648977 0 0 0
4687 313 7 2 -2752.244462197111 803.3387524334223 -1220.489675290582 0 0 0
4934 329 14 -1.5 -1787.3104240808464 752.6955517998709 -1262.275569690284 0 0 0
1414 95 4 0 -1494.8437237747787 776.2640649949514 -1232.7491595527401 0 0 0
4093 273 13 -0.5 -1221.5128721902804 1022.9269324356708 -1225.0592372810713 0 0 0
4083 273 3 -1.5 -1178.832676541477 1022.0314385527971 -1219.3947409636621 0 0 0
4659 311 9 0 -1099.8454988313104 1027.1584611033675 -1208.5114170756922 0 0 0
4656 311 6 -0.5 -1049.2343913217776 1018.7792110905389 -1223.0704584378796 0 0 0
4664 311 14 -1.5 -1010.5634381006417 1033.4602827501385 -1240.2726236840742 0 0 0
4092 273 12 0 -1141.701390287049 1050.4525430220467 -1232.715895964542 0 0 0
4090 273 10 1 -1079.749626923987 1064.6372396211825 -1240.9908892226401 0 0 0
4665 311 15 0 -1048.180596654724 1068.8370301569355 -1200.6486014371787 0 0 0
4087 273 7 2 -1019.0905413328838 1071.3002789847908 -1243.947723266187 0 0 0
5638 376 13 -0.5 -994.3239322329492 1076.151574873392 -1211.4026998051377 0 0 0
5628 376 3 -1.5 -981.4818272259758 1108.329807718591 -1236.736809398506 0 0 0
4652 311 2 0 -1030.6150137413858 1109.0413872228573 -1210.8816066231684 0 0 0
5637 376 12 0 -939.2619857456962 1122.06466573805 -1262.7148784627593 0 0 0
4091 273 11 1 -966.5891031394663 1078.914839308642 -1251.4771968889202 0 0 0
4089 273 9 0 -900.4717911758116 1074.1142030199287 -1252.1544865421206 0 0 0
5635 376 10 1 -880.1173180986309 1118.69338357212 -1269.7611737348986 0 0 0
4086 273 6 -0.5 -843.6420207601819 1087.2088903758504 -1249.31179344788 0 0 0
4095 273 15 0 -861.5701290245454 1100.0015148485948 -1211.1227083314948 0 0 0
4183 279 13 -0.5 -820.5075405971091 1088.949058206389 -1231.258770344702 0 0 0
5632 376 7 2 -819.4593761828695 1107.535384165108 -1267.3937185570628 0 0 0
5636 376 11 1 -765.8648660204058 1102.723516797911 -1264.8233139871843 0 0 0
4094 273 14 -1.5 -810.4132729382902 1109.17065382744 -1229.44221525338 0 0 0
4173 279 3 -1.5 -783.8883030801665 1105.883064987531 -1245.8549309732125 0 0 0
5634 376 9 0 -701.5229324702066 1108.2891261778034 -1256.0398397178458 0 0 0
4182 279 12 0 -746.7312488210873 1124.9929703087016 -1219.4263169996475 0 0 0
5373 359 3 -1.5 -606.0269674462866 1121.8265010996088 -1267.1208380028966 0 0 0
4363 291 13 -0.5 -2267.8787269804184 1179.2859341870785 -1260.3757942865818 0 0 0
4658 311 8 0 -1454.3024207725914 1144.4044842138421 -1224.770898105158 0 0 0
4655 311 5 0 -1413.705991108095 1130.2817471678839 -1214.0081027537851 0 0 0
4085 273 5 0 -1204.8841327884672 1132.98114240488 -1269.4237050295515 0 0 0
4654 311 4 0 -1021.4631483688846 1140.9937412717502 -1254.04086085277 0 0 0
4902 327 12 0 -784.137678644523 1149.8801318497408 -1252.0940584256962 0 0 0
4082 273 2 0 -801.4193076122019 1157.242648102745 -1206.6988869644592 0 0 0
5640 376 15 0 -677.9990211299224 1134.4347019081583 -1208.116536090906 0 0 0
4900 327 10 1 -720.4975375975873 1160.4279885880396 -1251.8954367093597 0 0 0
4084 273 4 0 -745.9981198345449 1172.7471682011144 -1207.680182426465 0 0 0
5631 376 6 -0.5 -657.3716271216707 1141.0967828230778 -1255.729274289938 0 0 0
5383 359 13 -0.5 -647.3744862428741 1132.0171649553 -1267.723732940611 0 0 0
5639 376 14 -1.5 -619.2606957501399 1155.111159005001 -1237.9541254859344 0 0 0
4897 327 7 2 -660.0154177030312 1161.0085368533214 -1241.2726641499908 0 0 0
4901 327 11 1 -609.2810906392513 1158.5631335038665 -1223.4424849512877 0 0 0
5382 359 12 0 -565.228257557288 1143.7626257296206 -1253.4955681171816 0 0 0
4263 285 3 -1.5 -589.7287443005101 1183.8472991325168 -1251.5593032069203 0 0 0
4899 327 9 0 -547.8685322187014 1168.1464196389966 -1205.813651066499 0 0 0
5380 359 10 1 -501.1365603238769 1154.3645712723194 -1249.4892732585631 0 0 0
4896 327 6 -0.5 -493.5444003718005 1171.07933098692 -1203.4162384620474 0 0 0
4904 327 14 -1.5 -455.2847738654133 1149.469309917255 -1210.4640952858908 0 0 0
4270 285 10 1 -479.5161924461001 1197.2363750727084 -1238.88236522043 0 0 0
5377 359 7 2 -442.1591605150809 1172.0353537791163 -1242.4739201106504 0 0 0
5381 359 11 1 -390.64073638074103 1186.0231905582036 -1243.187751979788 0 0 0
5379 359 9 0 -325.0983206830809 1187.0087042329858 -1245.1831240742792 0 0 0
5384 359 14 -1.5 -232.80940567992877 1191.3811483301522 -1266.205865008072 0 0 0
4353 291 3 -1.5 -2251.9778951524754 1218.3219565153768 -1268.9689755357172 0 0 0
4362 291 12 0 -2229.253085582225 1249.5587907490942 -1233.802842262191 0 0 0
4242 283 12 0 -2190.20070490814 1218.5843176684034 -1211.6389346354717 0 0 0
4360 291 10 1 -2181.5451079525324 1271.0098375302887 -1200.5346020742973 0 0 0
4081 273 1 0 -1271.6141547886887 1267.7712636965957 -1255.4243681998096 0 0 0
4088 273 8 0 -1216.9827686122558 1227.380172689666 -1257.2762818809024 0 0 0
4272 285 12 0 -542.8585062685695 1200.5166286209972 -1252.750994385395 0 0 0
4265 285 5 0 -566.1445593244142 1269.5032059508248 -1240.5506103560836 0 0 0
4905 327 15 0 -512.8193683890468 1224.8377887286936 -1208.3278131833692 0 0 0
4267 285 7 2 -422.1381189687604 1206.6505506969384 -1220.15985046305 0 0 0
5376 359 6 -0.5 -275.41589930116504 1201.5314080187036 -1256.6977335181589 0 0 0
4355 291 5 0 -2274.9350359294854 1299.5109072184355 -1245.0385399938164 0 0 0
4891 327 1 0 -921.9186627940691 1295.509299706609 -1251.3250224360313 0 0 0
4268 285 8 0 -627.1672054604937 1310.0518468866887 -1262.7274330104815 0 0 0
4351 291 1 0 -2354.0561351028155 1408.379742649958 -1206.4164642689611 0 0 0
4358 291 8 0 -2329.153644265085 1355.845148645722 -1238.9545508830247 0 0 0
4261 285 1 0 -656.4394687529729 1367.391556295163 -1247.7259840993188 0 0 0
1163 78 8 0 -1465.554150944757 -1299.7500329129862 -1145.1762936398452 0 0 0
3778 252 13 -0.5 -2074.519119931863 -1206.3086296109238 -1165.5534203580758 0 0 0
1156 78 1 0 -1428.8703220025136 -1249.817381201945 -1167.8390557168389 0 0 0
3768 252 3 -1.5 -2049.055271905301 -1174.6175471657098 -1151.2028681502352 0 0 0
3777 252 12 0 -2003.6656525134733 -1164.4171188788482 -1161.5795148069813 0 0 0
2660 178 5 0 -259.9592743290308 -841.3251867760041 -1164.4899020246 0 0 0
5533 369 13 -0.5 -2637.8236986023267 -724.0212541784664 -1133.5044493206503 0 0 0
1608 108 3 -1.5 -1525.1680577683285 -609.1272917969484 -1164.6220708345863 0 0 0
1618 108 13 -0.5 -1536.497141854996 -621.8616170840156 -1125.0420313140394 0 0 0
1617 108 12 0 -1487.846883557783 -577.4837225581583 -1178.2616459525107 0 0 0
1615 108 10 1 -1428.965898672272 -556.1600350644735 -1177.7795655642115 0 0 0
1612 108 7 2 -1368.596281170567 -543.0059996823493 -1176.515019928134 0 0 0
1616 108 11 1 -1315.2488784989755 -536.164441377816 -1171.2636944863593 0 0 0
1611 108 6 -0.5 -1208.681426214674 -563.81116034345 -1136.5836450959118 0 0 0
1614 108 9 0 -1254.4786355507613 -539.3093631707973 -1148.594919669397 0 0 0
1619 108 14 -1.5 -1164.6988061108664 -571.3125892115446 -1141.0239682801885 0 0 0
920 62 5 0 -991.9599630704952 -590.0064452386755 -1194.3193105795262 0 0 0
1610 108 5 0 -1547.9716298929427 -491.83110290099 -1151.6403265493643 0 0 0
245 17 5 0 -1288.163708888745 -495.45112137888054 -1193.43357384627 0 0 0
1620 108 15 0 -1196.2927612393098 -507.86462267898395 -1156.8593639792416 0 0 0
1607 108 2 0 -1173.1499279178695 -489.2684819130884 -1190.9383164640758 0 0 0
5443 363 13 -0.5 -474.5993090653594 -181.26055457864922 -1125.4093230825974 0 0 0
3122 209 2 0 -791.4070698402013 -24.338838736375457 -1148.238121857829 0 0 0
647 44 2 0 -91.01908763240287 -39.25314416173769 -1161.96406181407 0 0 0
3125 209 5 0 -1153.5487576104915 10.676791679655436 -1141.2124086025892 0 0 0
5057 338 2 0 -606.8872809475773 18.841657153214136 -1138.2262474964698 0 0 0
5059 338 4 0 -564.2654131164439 13.999780901623524 -1172.5708604795207 0 0 0
651 44 6 -0.5 -160.54014032178054 59.81780042797993 -1175.8549348417 0 0 0
660 44 15 0 -121.80643925234358 6.805108873402777 -1186.8354032968343 0 0 0
659 44 14 -1.5 -147.83098997490086 48.047984269588454 -1134.679876376272 0 0 0
1003 67 13 -0.5 -947.8543763349682 209.7318725922126 -1133.9746722216528 0 0 0
1723 115 13 -0.5 -416.75347667585476 213.58334703932763 -1195.0649321684186 0 0 0
1713 115 3 -1.5 -383.4887886287454 227.96460170801925 -1171.234820967035 0 0 0
1722 115 12 0 -369.85935476344054 270.04334552483596 -1156.0398145090699 0 0 0
1291 87 1 0 -1276.2101018698233 364.0663407756593 -1194.5639840952006 0 0 0
998 67 8 0 -1154.4642833802654 335.8396212015884 -1184.685087268031 0 0 0
1718 115 8 0 -488.28468418886644 339.8324737647875 -1161.3497177087313 0 0 0
1715 115 5 0 -424.15150985221663 308.1802665584655 -1149.7078812173654 0 0 0
1720 115 10 1 -319.6138833351171 305.6462121132612 -1139.509526914152 0 0 0
1298 87 8 0 -1243.2139839962792 382.0064653509034 -1153.2872167305097 0 0 0
1059 71 9 0 -497.8898919964274 464.87194375246645 -1193.964585177489 0 0 0
1056 71 6 -0.5 -452.68192076389147 481.47849158244907 -1172.2600048826748 0 0 0
1064 71 14 -1.5 -408.618942792141 476.9310440044886 -1168.503184836693 0 0 0
5168 345 8 0 -2281.707575679576 603.9444618861017 -1158.1129988396121 0 0 0
4691 313 11 1 -2729.9307033582877 803.731733581776 -1170.650335008636 0 0 0
4662 311 12 0 -1334.283019010705 1038.5337420453327 -1140.5386844491409 0 0 0
4660 311 10 1 -1274.3861961612324 1037.92284261757 -1168.310690300359 0 0 0
4657 311 7 2 -1216.3318382269129 1031.8677997909674 -1187.3005457027773 0 0 0
4661 311 11 1 -1164.5217037038576 1024.017777240644 -1198.9543640692123 0 0 0
4243 283 13 -0.5 -2240.2038633054713 1179.7746022938252 -1158.686444773955 0 0 0
4180 279 10 1 -722.1126361257792 1143.5972688978618 -1163.2292673889199 0 0 0
5627 376 2 0 -676.3188402433674 1164.9921369804142 -1160.2218098922476 0 0 0
5378 359 8 0 -642.1424251737045 1194.1185042606446 -1130.9417582976662 0 0 0
5375 359 5 0 -599.6280400838402 1181.3662995653358 -1176.9011334800327 0 0 0
4233 283 3 -1.5 -2232.5187218241417 1208.7870980384616 -1189.4970743624897 0 0 0
4240 283 10 1 -2134.7135684713776 1244.2733347317271 -1199.9013982750346 0 0 0
5629 376 4 0 -671.7215596971823 1208.135394711373 -1133.9198525151528 0 0 0
4271 285 11 1 -373.64463780182274 1213.7295548546995 -1198.522241940365 0 0 0
4269 285 9 0 -321.90211857114963 1228.8031370047493 -1161.3730582201383 0 0 0
5385 359 15 0 -276.11747042948997 1220.4777192074994 -1195.1907699955325 0 0 0
5372 359 2 0 -244.4976537839687 1250.0467953593984 -1139.2827008833535 0 0 0
4357 291 7 2 -2125.277078998376 1289.5325919987285 -1184.8155656877234 0 0 0
4237 283 7 2 -2083.800503750277 1279.261790114671 -1194.8709033236198 0 0 0
4361 291 11 1 -2079.2757392103563 1312.9648466445103 -1169.1948821500678 0 0 0
4241 283 11 1 -2037.3199983555835 1306.1433844445828 -1190.8010946582965 0 0 0
4239 283 9 0 -1977.7683430824836 1331.539478998685 -1185.360176923651 0 0 0
4359 291 9 0 -2016.9169506424776 1332.4495973576104 -1154.0579927625788 0 0 0
4236 283 6 -0.5 -1932.39808427599 1344.6698387484655 -1159.826039630807 0 0 0
4245 283 15 0 -1962.840669551853 1375.9931281396036 -1170.3861440601659 0 0 0
4356 291 6 -0.5 -1975.6652489989424 1353.7853577996407 -1125.3354628863715 0 0 0
4244 283 14 -1.5 -1900.160409618864 1373.6844908465814 -1147.703369688282 0 0 0
4232 283 2 0 -1906.662553890564 1419.8676797623982 -1141.102396988589 0 0 0
4364 291 14 -1.5 -1937.3300660059163 1376.7165519438101 -1125.5649327339863 0 0 0
2404 161 4 0 -2050.661738196409 1489.4703619751608 -1199.9370851761175 0 -1 0
1160 78 5 0 -1477.4131741947692 -1311.8201848952324 -1078.734413243551 0 0 0
736 50 1 0 -2196.4978039724006 -1112.8522718270824 -1069.1553637825639 0 0 0
3770 252 5 0 -1980.5072102636252 -1114.770738940509 -1093.0721212451833 0 0 0
2663 178 8 0 -268.4703119290799 -761.2977018900888 -1123.690651962908 0 0 0
5523 369 3 -1.5 -2601.3268543616477 -703.8618854961265 -1122.8720161708568 0 0 0
2656 178 1 0 -244.4904170256781 -725.3167689464818 -1103.3342167904716 0 0 0
5525 369 5 0 -2674.219177618918 -647.5103189729368 -1070.787162821006 0 0 0
5532 369 12 0 -2595.790938907831 -663.2889295996115 -1093.93800218704 0 0 0
5530 369 10 1 -2562.522110766724 -618.1484683984247 -1064.0527918034581 0 0 0
243 17 3 -1.5 -1294.2783422088976 -542.8021410846342 -1078.1844175824228 0 0 0
252 17 12 0 -1250.851617264292 -534.0452635599704 -1102.2874330955703 0 0 0
250 17 10 1 -1190.20776888555 -538.1482170289238 -1104.6896965591075 0 0 0
247 17 7 2 -1128.860826344542 -534.4490442932548 -1101.843045824078 0 0 0
251 17 11 1 -1075.5630903306007 -535.3712060853508 -1105.4012013394213 0 0 0
928 62 13 -0.5 -1037.6759728599493 -561.7255817866024 -1076.0810384985841 0 0 0
918 62 3 -1.5 -996.886194551545 -566.1357753717488 -1064.1456362197378 0 0 0
249 17 9 0 -1009.6638008196281 -534.6157799472032 -1092.9452979614484 0 0 0
927 62 12 0 -953.6016837127296 -566.6723910909768 -1087.8614482813762 0 0 0
246 17 6 -0.5 -968.4487140515795 -528.7474269948499 -1060.4707377642465 0 0 0
925 62 10 1 -892.6647687218285 -539.7392338926794 -1094.1892254829288 0 0 0
1613 108 8 0 -1603.463854538548 -459.7669035811346 -1097.4554878516244 0 0 0
253 17 13 -0.5 -1328.8465413744425 -519.7076465436843 -1069.6165733236728 0 0 0
255 17 15 0 -972.2151154339507 -486.15945094321296 -1084.4285544619095 0 0 0
922 62 7 2 -833.4805856840966 -524.593067333092 -1087.9644865813923 0 0 0
926 62 11 1 -779.8991726549274 -519.2339872969961 -1087.266412241137 0 0 0
924 62 9 0 -719.8472025289753 -495.95615854447806 -1087.6289768993681 0 0 0
921 62 6 -0.5 -673.3124301340667 -468.649125447883 -1074.0681343712529 0 0 0
1606 108 1 0 -1628.153246228942 -404.7419355581746 -1069.1036698974838 0 0 0
242 17 2 0 -955.8356583599024 -413.25732030185674 -1103.8289453331731 0 0 0
3387 226 12 0 -684.7693570309643 -403.1106929667746 -1050.139349057614 0 0 0
929 62 14 -1.5 -651.0694634978136 -430.5668035717979 -1065.0611457201583 0 0 0
244 17 4 0 -908.3761272383855 -362.33463113013556 -1094.9137875596668 0 0 0
3382 226 7 2 -612.9410537883889 -301.49002008218696 -1058.4253771828955 0 0 0
3385 226 10 1 -645.9818046592957 -354.1938510322668 -1056.053620190531 0 0 0
3386 226 11 1 -586.6564262754738 -254.54383599140533 -1056.3827008095434 0 0 0
3377 226 2 0 -405.77268512083054 -248.98441334268523 -1101.9964230857204 0 0 0
3379 226 4 0 -343.2920721938848 -254.34188384093932 -1105.1484780935443 0 0 0
3384 226 9 0 -537.3571280693302 -209.50351159885582 -1061.6090808964448 0 0 0
3390 226 15 0 -459.3232546174614 -219.15320325802236 -1087.8890233035777 0 0 0
3381 226 6 -0.5 -507.7201965518956 -174.9756064238991 -1087.384342118715 0 0 0
5433 363 3 -1.5 -433.3376559209178 -186.15205578184586 -1113.589016607314 0 0 0
5442 363 12 0 -417.22814278858 -160.42893371794688 -1073.9485634770565 0 0 0
3389 226 14 -1.5 -471.9562154759854 -149.11826237971502 -1084.6478856371555 0 0 0
3132 209 12 0 -1129.4505279906416 -32.22520549155316 -1061.7757855618822 0 0 0
3123 209 3 -1.5 -1171.5400751887476 -55.869478083229964 -1053.6505654761024 0 0 0
3130 209 10 1 -1065.220940456208 -24.533789163280463 -1054.3338515095788 0 0 0
3127 209 7 2 -1003.3290781299654 -22.229425296976665 -1054.089985158875 0 0 0