LAMMPS data file via write_data, version 27 Jun 2024, timestep = 12800000, units = real

5730 atoms
15 atom types
5514 bonds
16 bond types
5730 angles
15 angle types

-3000 3000 xlo xhi
-1500 1500 ylo yhi
-1500 1500 zlo zhi

Masses

1 241.19
2 73.54000000000001
3 330.71
4 235.16
5 68.06999999999999
6 353.53
7 223.38
8 41.1
9 216.91
10 155.15
11 147.32
12 264.65
13 300.8
14 326.05
15 85.20999999999999

Pair Coeffs # lj/cut/coul/debye/gpu

1 0.71637 40.7505
2 0.665709 48.1397
3 1.15033 39.2216
4 0.726774 43.8077
5 0.514724 53.3428
6 1.17127 41.7847
7 1.2256 38.5601
8 0.675431 54.5696
9 1.26117 43.78
10 0.939007 42.5209
11 0.960667 41.1825
12 1.30988 48.0761
13 1.36645 37.7114
14 1.35529 39.2179
15 0.592003 47.2602

Bond Coeffs # harmonic

1 0.003 59.228
2 0.008 56.48
3 0.001 69.324
4 3.207 42.88
5 0.11 49.807
6 0.002 74.968
7 0.001 91.635
8 0.145 54.383
9 2.709 44.406
10 1.71 61.679
11 1.625 54.051
12 0.207 66.185
13 0.002 64.76
14 0.079 63.886
15 0.2 40
16 0.2 40

Angle Coeffs # harmonic

1 11.427 158.273
2 50.464 132.042
3 8.207 156.514
4 92.705 149.394
5 100 174.44
6 3.15 145.53
7 48.938 159.031
8 17.401 129.945
9 15.735 56.441
10 60 172.254
11 60.285 168.396
12 11.83 99.091
13 150 107.995
14 27.746 149.925
15 7.483 160.775

Atoms # full

2410 161 10 1 -2205.488937654971 -1498.6104537670926 -1491.0676359856066 0 0 0
3616 242 1 0 -258.1188979194304 -1319.7191846549167 -1456.6285830390218 0 0 0
3779 252 14 -1.5 -1681.282111107926 -1215.5147433891316 -1479.8497602021214 0 0 0
3771 252 6 -0.5 -1719.028806324485 -1209.487919146781 -1457.4961916045881 0 0 0
3774 252 9 0 -1756.9021966759253 -1175.5597508154242 -1442.036342734339 0 0 0
2933 196 8 0 -2473.7555343538816 -470.8810909639763 -1478.0390715646324 0 0 0
2582 173 2 0 -1639.7029617768878 -354.1893521530752 -1457.8740427267867 0 0 1
646 44 1 0 -325.1184530934582 -241.77775405030602 -1480.8088916164959 0 0 0
1079 72 14 -1.5 -302.28999975408175 -168.0946320829767 -1475.2679590230694 0 0 1
1071 72 6 -0.5 -333.11048796713385 -195.20537682863426 -1493.845742496328 0 0 1
653 44 8 0 -348.9677278145935 -192.64714295988753 -1429.6932182711284 0 0 0
658 44 13 -0.5 -305.64681444522733 -3.849889389991789 -1466.928607789173 0 0 0
648 44 3 -1.5 -321.8482262501041 -19.637573513114322 -1431.6519103210921 0 0 0
1774 119 4 0 -1366.268854691019 274.71926523874777 -1481.7848677004595 0 0 1
4925 329 5 0 -1849.7685553198503 411.1017117940628 -1458.6394681662891 0 0 0
1058 71 8 0 -533.9751137980726 426.99028935983193 -1494.622059008768 0 0 0
4930 329 10 1 -1894.7077642245663 522.4567907538536 -1461.0868480025836 0 0 0
1423 95 13 -0.5 -1590.2003923174277 481.99200299914287 -1434.18221463618 0 0 0
1413 95 3 -1.5 -1607.4289232250708 520.8268278332079 -1427.5193570975355 0 0 0
1415 95 5 0 -1651.0602561374433 619.1947586009998 -1448.6297971333054 0 0 0
1418 95 8 0 -1709.0773857634292 669.9364686485047 -1432.6542177106385 0 0 0
1411 95 1 0 -1757.3914601482634 686.7057088168648 -1444.99295237596 0 0 0
4483 299 13 -0.5 -2139.1886155615234 935.8573927751464 -1476.5752251735125 0 0 0
1401 94 6 -0.5 -2100.819752306767 926.4361926509331 -1490.3981793230992 0 0 1
1409 94 14 -1.5 -2081.7497116128375 905.5351225288887 -1456.7701959335513 0 0 1
4088 273 8 0 -1064.8512012518925 953.4900267686437 -1480.5030994548777 0 0 0
4480 299 10 1 -2038.903478242405 1030.0571873288877 -1475.518845745124 0 0 0
4477 299 7 2 -1987.6297118584434 1040.9908827517168 -1443.8742586992676 0 0 0
2407 161 7 2 -2190.307699279946 1496.9388725175436 -1432.0828703133895 0 -1 0
3623 242 8 0 -273.2104605572526 -1327.6118356317897 -1397.0441785136247 0 0 0
3776 252 11 1 -1796.4667520699113 -1131.022566657832 -1409.1068279096876 0 0 0
3775 252 10 1 -1879.083695784825 -1059.0203056765695 -1373.2248736193746 0 0 0
3772 252 7 2 -1838.2116631812173 -1100.6231786004198 -1392.737297794313 0 0 0
1814 121 14 -1.5 -2428.0732237405314 -773.0433645499123 -1401.993543584183 0 0 0
1804 121 4 0 -2259.8165342926677 -752.9166295391816 -1420.5755404151635 0 0 0
1806 121 6 -0.5 -2436.6695599109858 -729.8573784142991 -1407.2363480113106 0 0 0
1809 121 9 0 -2449.643774429871 -682.1630129279865 -1386.8126392232489 0 0 0
1815 121 15 0 -2396.4267713609556 -712.3081918094896 -1370.2744349835175 0 0 0
1802 121 2 0 -2311.0175759939225 -733.6741151164739 -1402.6705160346307 0 0 0
1811 121 11 1 -2485.628040778673 -629.2333199536173 -1365.4091729811837 0 0 0
1810 121 10 1 -2545.3214846122987 -530.6936325600442 -1354.353390760458 0 0 0
1807 121 7 2 -2510.6385008246743 -581.4397194922946 -1358.8667624313907 0 0 0
1812 121 12 0 -2592.520894201904 -489.0504329347038 -1356.7114356006389 0 0 0
1803 121 3 -1.5 -2621.313506770358 -455.9505460226014 -1378.8926976481523 0 0 0
241 17 1 0 -1279.4015947362004 -453.2698882992118 -1355.3177395191785 0 0 0
1813 121 13 -0.5 -2614.6251561224576 -413.94981079182617 -1383.307559295348 0 0 0
2930 196 5 0 -2529.1205665009343 -437.8813494374452 -1400.7019019543752 0 0 0
2584 173 4 0 -1626.0697559777873 -354.5370554030651 -1400.1015425552243 0 0 1
975 65 15 0 -2498.834078412691 -256.3913009873635 -1371.5380068118652 0 0 0
962 65 2 0 -2454.315336902067 -220.82739866211136 -1388.5921047468123 0 0 0
964 65 4 0 -2450.8040551255135 -164.3154520029489 -1387.5250025965515 0 0 0
650 44 5 0 -348.0260588649985 -114.14015034866009 -1409.0129648588572 0 0 0
657 44 12 0 -301.31371793230016 -48.69449247362836 -1393.4767393271704 0 0 0
4921 329 1 0 -1858.3804612005695 312.82207947053337 -1383.361054101164 0 0 0
4928 329 8 0 -1827.647942325161 370.8273154526685 -1416.63758799274 0 0 0
1055 71 5 0 -525.424690159342 403.62916792623327 -1419.1382889994097 0 0 0
4931 329 11 1 -1939.1935113073168 582.9293819344599 -1372.9187255378904 0 0 0
4927 329 7 2 -1915.6093634419954 552.995463751558 -1411.5037124660837 0 0 0
1422 95 12 0 -1597.0529933068444 563.3099495664836 -1407.2471328256481 0 0 0
1420 95 10 1 -1558.7448895354498 601.7136474223685 -1372.345817522016 0 0 0
4085 273 5 0 -1082.9810354750407 960.6885904740411 -1400.9000693983924 0 0 0
4485 299 15 0 -1830.8394502670762 1001.2332308687853 -1413.4472488259778 0 0 0
4472 299 2 0 -1778.7290998091596 995.4104876732605 -1385.6000042463888 0 0 0
4474 299 4 0 -1721.6125001626779 983.3194544861398 -1383.6293529621448 0 0 0
4481 299 11 1 -1943.9670080433982 1053.176385615197 -1413.7004818914386 0 0 0
4479 299 9 0 -1881.3590323096025 1057.517194806347 -1395.540230153051 0 0 0
4476 299 6 -0.5 -1839.8488189561162 1050.8489761298604 -1359.370644538621 0 0 0
4654 311 4 0 -920.7042486213625 1128.031560808544 -1376.9579428306013 0 0 0
2411 161 11 1 -2172.8442114255345 1496.717264937529 -1380.589967443955 0 -1 0
4231 283 1 0 -2162.803646408665 1465.5248021923267 -1352.0565625035395 0 0 0
3620 242 5 0 -255.3188102554921 -1381.876741565706 -1320.2311212482439 0 0 0
3768 252 3 -1.5 -1954.6324216054754 -983.7311261635701 -1340.1356631715212 0 0 0
3778 252 13 -0.5 -1991.7752727397076 -979.2021210534439 -1319.1587627106537 0 0 0
3777 252 12 0 -1921.2016723729469 -1021.011666527641 -1343.8204985190064 0 0 0
248 17 8 0 -1277.5060525750177 -502.5259888440372 -1334.7507123675095 0 0 0
963 65 3 -1.5 -2820.514965244103 -316.4752834336621 -1307.6828753606544 0 0 0
973 65 13 -0.5 -2839.9467703686523 -353.5870792790712 -1299.4884536348875 0 0 0
970 65 10 1 -2709.200744322618 -314.3898145775977 -1315.7655371025571 0 0 0
972 65 12 0 -2773.9359460927117 -300.824783622843 -1305.2761416057028 0 0 0
967 65 7 2 -2648.0580900207096 -322.72905150723017 -1322.7392215932994 0 0 0
2928 196 3 -1.5 -2599.1694998006005 -342.76685416261506 -1322.216891197535 0 0 0
971 65 11 1 -2595.2626035818785 -322.5569861469989 -1329.9545098796152 0 0 0
2937 196 12 0 -2552.499873666913 -344.9820108721485 -1337.7718983886105 0 0 0
2938 196 13 -0.5 -2621.5707838155 -324.2965688411817 -1290.6933693783878 0 0 0
2935 196 10 1 -2494.4258337634524 -328.1401786801275 -1318.963658228938 0 0 0
969 65 9 0 -2530.4581662727705 -303.57418767611466 -1330.8555301786582 0 0 0
2932 196 7 2 -2439.446756700057 -308.444557619941 -1301.0212830246915 0 0 0
2927 196 2 0 -2211.599780375032 -312.7751028045512 -1310.8708367945185 0 0 0
2929 196 4 0 -2172.7157064782773 -322.1449524988865 -1293.428743712573 0 0 0
966 65 6 -0.5 -2479.5686117892797 -297.7051038711712 -1344.3574558285884 0 0 0
974 65 14 -1.5 -2440.273704619617 -284.4290178127206 -1330.7552652230142 0 0 0
2936 196 11 1 -2393.429530273132 -283.282890530101 -1287.7214750456706 0 0 0
2940 196 15 0 -2295.4715123434908 -296.1649727774603 -1297.5764802143478 0 0 0
965 65 5 0 -2785.592379028385 -178.86128882431078 -1324.901618017253 0 0 0
968 65 8 0 -2817.2560481831533 -124.01455210288839 -1349.6520244041753 0 0 0
961 65 1 0 -2820.814815912561 -75.50345988184205 -1343.587018916901 0 0 0
655 44 10 1 -279.65703753772857 -51.79607007935056 -1330.973264579637 0 0 0
1711 115 1 0 -279.3534935076747 294.43190691173197 -1345.2029713747936 0 0 0
1718 115 8 0 -294.5103602173047 337.88408716121205 -1299.7700087168955 0 0 0
1063 71 13 -0.5 -595.5182958047827 402.05699859096677 -1329.3713802305776 0 0 0
1053 71 3 -1.5 -570.2151986421081 434.2939917214834 -1341.824035862248 0 0 0
1062 71 12 0 -520.5053789825953 431.9017492732321 -1349.9049603159597 0 0 0
1060 71 10 1 -456.845800407404 452.83635899142325 -1336.8941907939327 0 0 0
1057 71 7 2 -402.60044799511934 479.6037185346359 -1326.4414375805381 0 0 0
1061 71 11 1 -359.0986014353682 510.5837725985408 -1314.0668004608258 0 0 0
1059 71 9 0 -301.3540166352134 537.1386657771717 -1297.756140950017 0 0 0
1065 71 15 0 -222.73304315317452 532.1217053854168 -1322.105203490151 0 0 0
1052 71 2 0 -137.93647412407 555.010965713602 -1321.247179992089 0 0 0
1054 71 4 0 -91.22559271608101 599.3311821253587 -1328.161159931979 0 0 0
4929 329 9 0 -1973.005938272587 608.2038347062951 -1321.6557094678244 0 0 0
4935 329 15 0 -1948.951034401612 654.4583973814115 -1282.6157910745453 0 0 0
1417 95 7 2 -1519.503054482023 640.7665333605613 -1346.7433722443616 0 0 0
1421 95 11 1 -1481.163986011574 669.4467293577336 -1322.4422089884683 0 0 0
1419 95 9 0 -1443.3549706731953 696.1134389153286 -1276.6907937194635 0 0 0
4653 311 3 -1.5 -1313.9470841082536 927.2265854844317 -1295.4035005544338 0 0 0
4662 311 12 0 -1278.3156587422363 960.243254897264 -1283.4630205913245 0 0 0
4484 299 14 -1.5 -1818.6498734112229 1026.8642335197683 -1328.3541846014082 0 0 0
4093 273 13 -0.5 -1152.6890520995146 980.5213810310643 -1302.3156356040704 0 0 0
4083 273 3 -1.5 -1124.043163730567 1011.3296994975806 -1296.0435612883641 0 0 0
4092 273 12 0 -1077.626506343469 1014.3759909927074 -1299.9781967628471 0 0 0
4090 273 10 1 -1020.7672272668555 1031.9082411127129 -1287.7265236037633 0 0 0
4364 291 14 -1.5 -1930.669541526996 1106.427245430758 -1277.6551183115407 0 0 0
4665 311 15 0 -1029.747648952807 1091.2112186057107 -1302.7673066153532 0 0 0
4664 311 14 -1.5 -980.4689395455747 1067.1809892965996 -1304.6200262007287 0 0 0
5628 376 3 -1.5 -979.0342473893261 1085.1524409497345 -1289.5013466898895 0 0 0
5637 376 12 0 -944.5752290740422 1113.9308613939093 -1283.9350129815864 0 0 0
4356 291 6 -0.5 -1969.7281824512338 1127.421495834734 -1278.963082730058 0 0 0
4234 283 4 0 -1889.9062593254046 1173.4384995759199 -1325.99022756387 0 0 0
4652 311 2 0 -969.3785264090442 1134.5030509165879 -1330.7965120259692 0 0 0
4261 285 1 0 -674.3126226640807 1262.8201010151452 -1304.3845581372275 0 0 0
4238 283 8 0 -2160.270513724184 1432.4545817570938 -1324.0958826341712 0 0 0
2409 161 9 0 -2160.1441392344045 1493.2364828288353 -1314.3310484227854 0 -1 0
2415 161 15 0 -2192.6146117566227 -1470.2729954660772 -1248.4316702392516 0 0 0
3622 242 7 2 -125.99318232995358 -1444.5452886872731 -1231.1653935528414 0 0 0
3626 242 11 1 -84.21141719932702 -1477.016786546082 -1217.9799206017544 0 0 0
2402 161 2 0 -2196.669714085675 -1396.2293499572088 -1217.1883577252631 0 0 0
3627 242 12 0 -235.5767249025964 -1386.834296307942 -1235.7649595398186 0 0 0
3618 242 3 -1.5 -281.34508625714227 -1381.4944141701537 -1215.0955698744183 0 0 0
3625 242 10 1 -179.00093969483714 -1414.2440110486098 -1239.3662392452566 0 0 0
3773 252 8 0 -1862.4361967798786 -1088.5992204842228 -1204.9813040183603 0 0 0
3770 252 5 0 -1907.711833232005 -1031.310357449693 -1251.5475084643742 0 0 0
2670 178 15 0 -7.845825245755147 -795.2823694840569 -1204.210468714156 0 0 0
2657 178 2 0 -1.3968045366462178 -779.525291897272 -1251.5963511380123 0 0 0
2663 178 8 0 -307.0494574198713 -717.139050319138 -1246.8353127986636 0 0 0
916 62 1 0 -867.6482499228777 -638.006514293268 -1211.1236882095793 0 0 0
2656 178 1 0 -304.5356565440452 -670.6542943303755 -1273.3295703887827 0 0 0
1805 121 5 0 -2623.5297540148663 -470.3952469293389 -1260.9953026567487 0 0 0
245 17 5 0 -1284.3497144202408 -511.3849268034905 -1256.2170578933535 0 0 0
2934 196 9 0 -2334.3499254138214 -268.81097344007094 -1270.110959313786 0 0 0
2931 196 6 -0.5 -2281.4546776026573 -272.0664064929809 -1250.7005524091558 0 0 0
2939 196 14 -1.5 -2238.3451337684714 -267.1359392874199 -1260.2880607584914 0 0 0
649 44 4 0 -61.69545358791597 -151.6126307166627 -1205.6626037367184 0 0 0
3121 209 1 0 -1216.546851830808 -141.78811509769054 -1263.9996742665521 0 0 0
3128 209 8 0 -1179.1093993280435 -109.9497142267221 -1222.229269544309 0 0 0
656 44 11 1 -261.8330859711067 -75.58338499575349 -1219.0792440088658 0 0 0
652 44 7 2 -266.038737861603 -66.07480878866335 -1272.0429731636002 0 0 0
1715 115 5 0 -353.00293809625657 364.06652578122737 -1258.4016772742498 0 0 0
1056 71 6 -0.5 -262.43179084015367 554.547423384262 -1262.7179996650548 0 0 0
1064 71 14 -1.5 -234.71996003362068 588.1859412312267 -1253.1723172372715 0 0 0
4926 329 6 -0.5 -1986.060326033939 624.2013492892376 -1267.2541158942795 0 0 0
4934 329 14 -1.5 -2014.3556764431655 647.1968379161716 -1240.8241235064565 0 0 0
4922 329 2 0 -1909.0323726503543 668.4410857696091 -1256.1102502899682 0 0 0
4924 329 4 0 -1860.0191134361035 671.1484574270372 -1228.6504914591794 0 0 0
1425 95 15 0 -1442.9560630005049 743.5070801623345 -1226.5384820235004 0 0 0
1416 95 6 -0.5 -1400.395168678685 718.4778861414984 -1250.5681500521878 0 0 0
1424 95 14 -1.5 -1363.4524498870956 712.6255471274081 -1226.7476832716638 0 0 0
4663 311 13 -0.5 -1346.8181846530717 910.7191816562286 -1274.035601558895 0 0 0
4660 311 10 1 -1219.9025909000227 970.5884194877867 -1267.1297082659605 0 0 0
4655 311 5 0 -1316.4844605044336 1012.3902812781417 -1263.2513138902268 0 0 0
4658 311 8 0 -1346.9554256206939 1048.094523080287 -1219.9167495794352 0 0 0
4657 311 7 2 -1160.4571373481988 984.1432642693247 -1263.0094286079684 0 0 0
4659 311 9 0 -1056.141719116224 1040.7377270455302 -1257.0060051324076 0 0 0
4661 311 11 1 -1110.8984273709473 1004.7054475278356 -1257.9789476488047 0 0 0
4365 291 15 0 -1998.247007398505 1108.440158962318 -1233.6049069262021 0 0 0
4244 283 14 -1.5 -1952.497885807205 1112.2098307913739 -1230.9476560412684 0 0 0
4651 311 1 0 -1366.79955298216 1095.730891543038 -1204.9983067350468 0 0 0
4656 311 6 -0.5 -1006.9281220511788 1058.5236851234451 -1270.1207004294413 0 0 0
5638 376 13 -0.5 -1004.4949539927127 1066.8872459496304 -1259.059473244707 0 0 0
4087 273 7 2 -968.6477152400469 1059.081693867708 -1268.1437918671834 0 0 0
4091 273 11 1 -924.3388779806496 1083.5846679909369 -1249.2501427205189 0 0 0
4089 273 9 0 -865.661302414283 1109.02456946863 -1230.809569826541 0 0 0
4893 327 3 -1.5 -778.468695442163 1107.327818653101 -1232.5479966880587 0 0 0
4903 327 13 -0.5 -818.2031713063035 1115.0057825065244 -1248.343138129268 0 0 0
4245 283 15 0 -1972.6418193757331 1191.6451980007505 -1225.7662796224613 0 0 0
4359 291 9 0 -2004.370773502356 1158.1063300887695 -1251.6152658408619 0 0 0
4239 283 9 0 -2008.2360115578624 1185.3246260065985 -1207.6189963364138 0 0 0
4236 283 6 -0.5 -1972.264292611688 1143.6756766226829 -1207.5113620121401 0 0 0
4232 283 2 0 -1921.4707883143915 1174.0798063377833 -1272.6168240427016 0 0 0
5630 376 5 0 -1002.9757394344257 1136.9405135368495 -1205.841905747652 0 0 0
5635 376 10 1 -882.5035486853681 1129.015375049175 -1268.07002806947 0 0 0
5632 376 7 2 -831.9107641036533 1151.0758873767645 -1241.8396043796172 0 0 0
4086 273 6 -0.5 -820.0630339314662 1139.1331931672496 -1228.4632553213169 0 0 0
4183 279 13 -0.5 -808.8258109014112 1141.6565205572383 -1210.0454021403923 0 0 0
4173 279 3 -1.5 -778.6469847361539 1155.04040371661 -1237.8113596678497 0 0 0
4094 273 14 -1.5 -803.5992716848805 1179.354402537804 -1236.9098533812466 0 0 0
5636 376 11 1 -786.9578792251941 1174.135544531193 -1221.4044607620338 0 0 0
4182 279 12 0 -736.947472442147 1180.2283448308385 -1236.2116445855584 0 0 0
4180 279 10 1 -677.455689079111 1187.0278112170834 -1215.2628467988393 0 0 0
4361 291 11 1 -2050.394355237224 1206.337674719329 -1239.488015143687 0 0 0
4357 291 7 2 -2085.4443021081524 1241.7628028915628 -1218.1519355851224 0 0 0
4175 279 5 0 -774.4964202223846 1233.4494089507618 -1218.0578608009428 0 0 0
4268 285 8 0 -659.8637332536529 1269.5085786534805 -1232.2357765492816 0 0 0
4171 279 1 0 -897.6779531103442 1307.81910811056 -1201.0897786398252 0 0 0
4235 283 5 0 -2170.7962252043553 1380.2404854534448 -1252.3157441877538 0 0 0
2406 161 6 -0.5 -2140.9361578465546 1481.5342819303971 -1264.0335908824225 0 -1 0
2414 161 14 -1.5 -2108.213210315021 1468.701551007596 -1236.3751887168073 0 -1 0
3624 242 9 0 -38.463858253512576 1476.8629633978326 -1212.2132692274854 0 -1 0
2404 161 4 0 -2192.7025439500953 -1360.8655466994899 -1168.6193345768145 0 0 0
3628 242 13 -0.5 -291.01371603933256 -1360.2034748265564 -1179.791247164028 0 0 0
3766 252 1 0 -1823.5521908503295 -1117.9677320968026 -1189.066331877239 0 0 0
2664 178 9 0 -26.754715241149206 -826.8596609210265 -1143.905496402859 0 0 0
2660 178 5 0 -320.74255018464845 -760.3680407548065 -1176.5312313032757 0 0 0
1618 108 13 -0.5 -1530.603416960735 -635.7871722556438 -1199.0161245367474 0 0 0
1608 108 3 -1.5 -1504.7412355590927 -628.6549110614795 -1165.7831790125333 0 0 0
923 62 8 0 -862.0572901559549 -608.6403295470282 -1167.0163491306419 0 0 0
1610 108 5 0 -1509.3544284922023 -526.7869793666528 -1130.0093421597073 0 0 0
1617 108 12 0 -1467.457494109351 -594.9762073590751 -1155.516679666298 0 0 0
1615 108 10 1 -1402.7325880610604 -581.2187895462521 -1150.1515246912911 0 0 0
1612 108 7 2 -1344.7676750734188 -561.0726005595526 -1144.4275654243288 0 0 0
243 17 3 -1.5 -1301.5558081832567 -569.2737949417773 -1151.9567790246845 0 0 0
1616 108 11 1 -1294.0397963771657 -548.2541453478384 -1131.0284304149877 0 0 0
252 17 12 0 -1252.986838046404 -562.5760984394333 -1160.0783566233831 0 0 0
1614 108 9 0 -1231.1596807161463 -533.6638135576839 -1131.1884420586225 0 0 0
250 17 10 1 -1191.902803039371 -550.9277690473637 -1147.833482840342 0 0 0
1619 108 14 -1.5 -1147.94633203256 -544.9787027631376 -1174.0438257401356 0 0 0
247 17 7 2 -1131.5185539124786 -544.5351814172932 -1140.8810417358966 0 0 0
1611 108 6 -0.5 -1181.626614816966 -529.836370863026 -1150.277175759311 0 0 0
251 17 11 1 -1080.0332303293228 -531.8995676265781 -1133.646700137875 0 0 0
1801 121 1 0 -2627.005659406043 -483.94941984543004 -1129.9253129194876 0 0 0
1808 121 8 0 -2627.0936186130302 -455.38753775913494 -1178.977113770259 0 0 0
249 17 9 0 -1019.4672041813108 -508.55233625426945 -1131.3876771929367 0 0 0
1606 108 1 0 -1581.517766633443 -401.21173101444634 -1137.1529701789193 0 0 0
3125 209 5 0 -1150.9357369445902 -110.20121799531785 -1135.0186851908409 0 0 0
654 44 9 0 -236.93055659340314 -81.11656549349475 -1157.1508967854722 0 0 0
660 44 15 0 -180.1099366647062 -107.24265897694444 -1136.365715683263 0 0 0
647 44 2 0 -101.25162531511542 -147.71308063972032 -1166.516607896184 0 0 0
5070 338 15 0 -675.9988317018075 -51.25463236237945 -1142.6771859050523 0 0 0
5057 338 2 0 -619.1778984326644 -58.38625427554968 -1168.205150217081 0 0 0
5059 338 4 0 -558.4427859513685 -40.09292099499134 -1166.5779588111598 0 0 0
1723 115 13 -0.5 -445.57219173567415 326.04027307546113 -1186.5563026501063 0 0 0
1713 115 3 -1.5 -430.2719018844034 363.5423999244244 -1170.5639994218895 0 0 0
1291 87 1 0 -1107.0457859834503 409.4981922002247 -1137.1505894475013 0 0 0
1722 115 12 0 -389.3348777668727 393.4339039376684 -1170.5582955597572 0 0 0
1720 115 10 1 -339.88302249907036 426.64277812235184 -1139.8240413559704 0 0 0
4688 313 8 0 -2961.803915703689 704.8710971391562 -1128.1469284621116 0 0 0
4685 313 5 0 -2947.2866239883906 776.2700680514231 -1146.7004737559755 0 0 0
1412 95 2 0 -1451.593456743619 791.579651923621 -1168.7908777155549 0 0 0
1414 95 4 0 -1481.4502879181932 818.4390097638682 -1129.097389712164 0 0 0
4683 313 3 -1.5 -2954.429056018237 877.3675840917797 -1155.8100771194217 0 0 0
4692 313 12 0 -2919.049276846116 847.6381942061872 -1135.1275619582946 0 0 0
4066 272 1 0 -2721.7348120753913 835.412152658351 -1149.3905854724103 0 0 0
4693 313 13 -0.5 -2951.9593228855 905.7985230255764 -1188.8874119085551 0 0 0
4354 291 4 0 -1910.7571621759873 1050.9228084085553 -1148.4106049658033 0 0 0
4352 291 2 0 -1945.8453139540868 1066.5569326189725 -1184.491549233297 0 0 0
4095 273 15 0 -816.3854553563135 1092.1885527386507 -1196.908802203604 0 0 0
4082 273 2 0 -774.1419636554805 1089.4998202442732 -1170.9974622250304 0 0 0
4895 327 5 0 -814.0627084651037 1062.73370865691 -1126.9211990655383 0 0 0
4084 273 4 0 -721.8822089052006 1096.7604342707143 -1152.7700455079607 0 0 0
5626 376 1 0 -1095.5878005608583 1155.599027354988 -1144.1169559168798 0 0 0
5633 376 8 0 -1061.8808302587624 1159.0739766050508 -1186.3113368250583 0 0 0
4902 327 12 0 -759.0677461528609 1134.5244874432444 -1197.454544857417 0 0 0
4900 327 10 1 -707.6914626062193 1160.9529618640897 -1165.8465940689914 0 0 0
5634 376 9 0 -737.2458740626055 1196.066026645916 -1185.359503943872 0 0 0
4897 327 7 2 -661.3969302151265 1184.531260072226 -1131.8376648172793 0 0 0
5383 359 13 -0.5 -662.3416348691151 1180.1677279608796 -1171.7416293032704 0 0 0
5639 376 14 -1.5 -642.8963292404314 1195.0728596712886 -1163.4259689489681 0 0 0
5374 359 4 0 -191.81997660347875 1187.0408456935231 -1139.5944214069916 0 0 0
4237 283 7 2 -2087.100968405254 1266.6089268090434 -1176.575545434601 0 0 0
4241 283 11 1 -2051.7197916507807 1227.1928646302872 -1183.4203164522094 0 0 0
5631 376 6 -0.5 -685.8674886750192 1206.1439206940006 -1168.817345374176 0 0 0
4177 279 7 2 -620.1229469933808 1202.9903753642668 -1198.8421293451693 0 0 0
5373 359 3 -1.5 -636.813873407899 1213.7044915752958 -1162.754843352885 0 0 0
4265 285 5 0 -611.6618752628541 1262.323054914311 -1185.6566901412662 0 0 0
5382 359 12 0 -597.1458415491029 1224.9537561798745 -1134.9540137096342 0 0 0
4181 279 11 1 -568.1499917274268 1212.700656276583 -1189.4106858647256 0 0 0
4179 279 9 0 -510.71360436490767 1234.1293935632227 -1162.9526861990944 0 0 0
4176 279 6 -0.5 -466.82907316566883 1237.9773173299923 -1133.454114908469 0 0 0
5381 359 11 1 -420.42528096078405 1239.5528770812173 -1126.6298023895247 0 0 0
5385 359 15 0 -302.3922400967591 1225.675443751069 -1150.4322504484899 0 0 0
5372 359 2 0 -228.03698769586913 1209.6683986270239 -1146.742879317699 0 0 0
4353 291 3 -1.5 -2211.4589125290763 1313.290684721666 -1133.0556175526842 0 0 0
4362 291 12 0 -2179.215160597421 1314.7456092916561 -1168.4508135771198 0 0 0
4360 291 10 1 -2129.486193408063 1281.2470427087778 -1199.162737042799 0 0 0
4240 283 10 1 -2123.868976924277 1316.5765019948913 -1170.1528348020042 0 0 0
4178 279 8 0 -830.345951366292 1287.971085461552 -1189.4479259894954 0 0 0
3617 242 2 0 -17.753458208800037 1328.9376607964905 -1145.2063297284296 0 -1 0
4233 283 3 -1.5 -2175.319677128641 1408.4422831060465 -1154.5719875044665 0 0 0
4242 283 12 0 -2163.9343483944585 1364.408601783431 -1175.9489978155013 0 0 0
4355 291 5 0 -2145.086981218051 1378.2349485601394 -1125.4246295055473 0 0 0
3630 242 15 0 -33.955743859383034 1436.7258278187073 -1183.4567994698234 0 -1 0
4351 291 1 0 -2105.153686368104 -1481.0580910219705 -1090.7890486906565 0 1 0
2658 178 3 -1.5 -300.34072140813413 -836.7264533120199 -1057.0219079335475 0 0 0
2667 178 12 0 -259.5740206444712 -818.3473058804464 -1078.392086791413 0 0 0
2665 178 10 1 -199.05981794778086 -823.5284755302778 -1092.5123851749254 0 0 0
2666 178 11 1 -88.16162489376468 -818.5049348090381 -1122.6699091437595 0 0 0
2662 178 7 2 -139.03906357937885 -819.3545473398236 -1104.991913070413 0 0 0
253 17 13 -0.5 -1324.2054566835075 -589.065434155649 -1121.4115129995869 0 0 0
1620 108 15 0 -1170.4772729289998 -542.210210839804 -1083.8104369473172 0 0 0
1607 108 2 0 -1078.5156065862866 -529.9918972592853 -1060.4682481795696 0 0 0
920 62 5 0 -895.439181738422 -545.6504043668524 -1104.6924298120155 0 0 0
1613 108 8 0 -1559.643002077124 -480.8656038233868 -1121.317325488484 0 0 0
1609 108 4 0 -1019.6050113392301 -506.73032438934416 -1067.1854400135462 0 0 0
255 17 15 0 -997.6564330084992 -459.9983489905937 -1077.9586936339201 0 0 0
246 17 6 -0.5 -972.2640311911938 -498.7050889499947 -1107.230243659448 0 0 0
254 17 14 -1.5 -947.4343295441869 -483.27203270644713 -1073.1390102771586 0 0 0
5443 363 13 -0.5 -521.2767291557013 -322.8075196099028 -1062.942488567048 0 0 0
917 62 2 0 -587.8714142328885 -293.12853362939103 -1053.8494202641527 0 0 0
919 62 4 0 -548.6302513986153 -263.8583316926042 -1081.5418801687256 0 0 0
5433 363 3 -1.5 -505.3983725906463 -283.30155167704487 -1056.0684187928562 0 0 0
3384 226 9 0 -515.1949623259895 -230.01979385421512 -1064.0131644938199 0 0 0
3381 226 6 -0.5 -478.3782865007174 -189.18372030120233 -1072.52992993398 0 0 0
3389 226 14 -1.5 -436.0918888954564 -178.713860380763 -1081.7112618892538 0 0 0
5064 338 9 0 -721.9699456928009 -80.57785500949399 -1108.2110034195355 0 0 0
5069 338 14 -1.5 -627.9553144953868 -82.13160841002004 -1113.9691943528665 0 0 0
5061 338 6 -0.5 -670.5153582169008 -93.91696604315425 -1118.0080428616832 0 0 0
651 44 6 -0.5 -237.5767191671246 -85.19883232510998 -1103.5535830021338 0 0 0
659 44 14 -1.5 -218.84188857044575 -94.37064608201527 -1063.9976772028733 0 0 0
3132 209 12 0 -1140.4192282246693 -63.75826819796336 -1054.732772010374 0 0 0
5065 338 10 1 -875.5872446375251 -1.9769715325080126 -1056.9587920626834 0 0 0
5062 338 7 2 -820.5721375494201 -29.59789460427818 -1065.1523517264588 0 0 0
5066 338 11 1 -774.6021163205197 -53.54723834579109 -1077.9272106841165 0 0 0
5068 338 13 -0.5 -1018.104420473378 0.17380747179225622 -1058.4980996640713 0 0 0
1003 67 13 -0.5 -1122.9290389210416 273.3305871411674 -1066.386963212251 0 0 0
1298 87 8 0 -1086.674322287981 362.68532038882745 -1106.795866448613 0 0 0
1717 115 7 2 -283.9423654965152 443.3160826466317 -1119.4179578862406 0 0 0
1725 115 15 0 -116.78426154332352 447.6559888526696 -1093.0615873383288 0 0 0
1712 115 2 0 -41.65427235277352 446.38657119829145 -1112.0363259964502 0 0 0
1721 115 11 1 -237.02223252595178 457.3495548994654 -1096.6983367768632 0 0 0
1719 115 9 0 -175.84366690599563 473.5448790225396 -1085.9451572463106 0 0 0
1716 115 6 -0.5 -125.9438842845656 488.992702650287 -1096.3433522091964 0 0 0
1724 115 14 -1.5 -93.64949351154162 516.5094167765601 -1086.864362177016 0 0 0
5165 345 5 0 -2038.728143114913 581.9524497245447 -1065.264535034525 0 0 0
5168 345 8 0 -1971.8001270065272 556.8978733502829 -1084.0718485937086 0 0 0
5161 345 1 0 -1906.4430790140257 555.4812158749439 -1088.8786309032969 0 0 0
5163 345 3 -1.5 -2143.3041864361776 613.0985969525022 -1052.4828439220828 0 0 0
4690 313 10 1 -2872.3148713284677 845.5473593637665 -1089.273836341483 0 0 0
4073 272 8 0 -2681.267421567348 836.7780090846716 -1088.3014022071682 0 0 0
4067 272 2 0 -2390.4688402595707 850.0478846767959 -1055.8191014383244 0 0 0
4069 272 4 0 -2380.1636646854668 843.9922344303665 -1100.3940734698708 0 0 0
3523 235 13 -0.5 -1447.9105528359134 838.2263059056091 -1070.2640692182163 0 0 0
4898 327 8 0 -868.2572697809187 1017.8568407461335 -1076.4931881249279 0 0 0
4172 279 2 0 -447.89098625155447 1118.899391171715 -1054.8552848716747 0 0 0
4185 279 15 0 -495.6816905293882 1194.6218947241255 -1107.8212974729024 0 0 0
4262 285 2 0 -244.78196665162116 1185.8506341115094 -1061.111341782006 0 0 0
4264 285 4 0 -206.80202580178005 1162.1169881517917 -1097.425848009244 0 0 0
5640 376 15 0 -709.9109438642308 1222.0963114562153 -1111.6658309658796 0 0 0
4901 327 11 1 -622.7806747965562 1200.4790933065017 -1098.1144682126962 0 0 0
4273 285 13 -0.5 -636.0117993641866 1208.2794762756416 -1111.6637591970323 0 0 0
4263 285 3 -1.5 -610.8018062230261 1232.092564067658 -1087.7281117147775 0 0 0
5380 359 10 1 -535.3807748958828 1225.1017577890816 -1124.6748488384549 0 0 0
4272 285 12 0 -572.9020614873892 1257.738765684959 -1100.0214811346177 0 0 0
4899 327 9 0 -566.2834103645426 1214.2860050859601 -1067.5232381263668 0 0 0
4905 327 15 0 -540.835249410522 1270.5403934540007 -1060.691537646025 0 0 0
4270 285 10 1 -508.74191847039395 1256.5681592733683 -1106.1562317872022 0 0 0
4896 327 6 -0.5 -513.9943400288074 1228.4296900512986 -1063.8198412544566 0 0 0
5377 359 7 2 -474.2343877512184 1232.8209428741343 -1123.266446810333 0 0 0
4904 327 14 -1.5 -476.1750038218871 1239.932790525364 -1084.1871889293018 0 0 0
4184 279 14 -1.5 -444.4286039977893 1223.7871600324431 -1097.873215813264 0 0 0
4267 285 7 2 -446.9629564958593 1262.9733112445158 -1101.876318867289 0 0 0
4271 285 11 1 -394.47623222393224 1273.3499520198604 -1097.1424815486873 0 0 0
5379 359 9 0 -355.69638025510113 1249.4704774247245 -1115.2389640289384 0 0 0
5376 359 6 -0.5 -308.0089575769354 1274.487930812037 -1116.8800336845768 0 0 0
4275 285 15 0 -288.7133388845347 1241.209167284144 -1059.7407562489398 0 0 0
4363 291 13 -0.5 -2234.454122960938 1343.6835636170463 -1114.1027067631144 0 0 0
4269 285 9 0 -331.95929648741236 1283.6948297419474 -1081.1515945960325 0 0 0
5384 359 14 -1.5 -266.5654066072596 1280.8869632247317 -1101.7379041166396 0 0 0
4266 285 6 -0.5 -284.36882847860494 1305.521917610161 -1057.325526347571 0 0 0
4243 283 13 -0.5 -2154.7927304637387 1431.1724326391607 -1124.187695480818 0 0 0
4358 291 8 0 -2120.042114046511 1460.0804800194853 -1096.097360499966 0 0 0