LAMMPS data file via write_data, version 27 Jun 2024, timestep = 9920000, units = real

5730 atoms
15 atom types
5487 bonds
16 bond types
5730 angles
15 angle types

-3000 3000 xlo xhi
-1500 1500 ylo yhi
-1500 1500 zlo zhi

Masses

1 241.19
2 73.54000000000001
3 330.71
4 235.16
5 68.06999999999999
6 353.53
7 223.38
8 41.1
9 216.91
10 155.15
11 147.32
12 264.65
13 300.8
14 326.05
15 85.20999999999999

Pair Coeffs # lj/cut/coul/debye/gpu

1 0.71637 40.7505
2 0.665709 48.1397
3 1.15033 39.2216
4 0.726774 43.8077
5 0.514724 53.3428
6 1.17127 41.7847
7 1.2256 38.5601
8 0.675431 54.5696
9 1.26117 43.78
10 0.939007 42.5209
11 0.960667 41.1825
12 1.30988 48.0761
13 1.36645 37.7114
14 1.35529 39.2179
15 0.592003 47.2602

Bond Coeffs # harmonic

1 0.003 59.228
2 0.008 56.48
3 0.001 69.324
4 3.207 42.88
5 0.11 49.807
6 0.002 74.968
7 0.001 91.635
8 0.145 54.383
9 2.709 44.406
10 1.71 61.679
11 1.625 54.051
12 0.207 66.185
13 0.002 64.76
14 0.079 63.886
15 0.2 40
16 0.2 40

Angle Coeffs # harmonic

1 11.427 158.273
2 50.464 132.042
3 8.207 156.514
4 92.705 149.394
5 100 174.44
6 3.15 145.53
7 48.938 159.031
8 17.401 129.945
9 15.735 56.441
10 60 172.254
11 60.285 168.396
12 11.83 99.091
13 150 107.995
14 27.746 149.925
15 7.483 160.775

Atoms # full

1806 121 6 -0.5 -2307.045053926379 -700.1419860987984 -1478.7947799154838 0 0 0
1807 121 7 2 -2450.355379937432 -615.0699029060285 -1437.7425432060277 0 0 0
1811 121 11 1 -2404.7626814577648 -639.5923703366395 -1449.228997815198 0 0 0
1809 121 9 0 -2346.9040135027585 -663.1391999227134 -1471.9156033132172 0 0 0
1810 121 10 1 -2506.114050463633 -590.0141408350065 -1425.9677292891774 0 0 0
2594 173 14 -1.5 -1612.3006624368834 -424.6908957197299 -1454.507528705458 0 0 1
2586 173 6 -0.5 -1640.4764266284035 -391.39822900965544 -1461.0309205629217 0 0 1
2582 173 2 0 -1546.3443987215496 -385.9802481371129 -1445.179519708892 0 0 1
2589 173 9 0 -1677.0902096024718 -364.9059408046143 -1488.9554975639878 0 0 1
2595 173 15 0 -1624.2681650928762 -350.96658299226516 -1479.6047526444318 0 0 1
1074 72 9 0 -396.06644552315885 -254.22279173743166 -1476.5462083461255 0 0 1
1071 72 6 -0.5 -364.50129478284924 -229.47873406418842 -1442.2340762244985 0 0 1
2926 196 1 0 -2630.7699773145755 -155.95811570807783 -1457.9387879204908 0 0 0
1067 72 2 0 -285.23868662557675 -132.8768076121126 -1498.0293831054253 0 0 1
650 44 5 0 -324.8439765095106 -2.0576960794075236 -1452.8027497178196 0 0 0
1069 72 4 0 -272.56536255151156 -69.71811574271143 -1499.7067966833192 0 0 1
657 44 12 0 -269.8794618118419 68.07279297449692 -1427.3791239491425 0 0 0
648 44 3 -1.5 -273.8471699003739 97.08954378295908 -1469.0819172844726 0 0 0
1058 71 8 0 -569.7738913023726 329.4852606398392 -1480.3244575315875 0 0 0
1055 71 5 0 -604.635614181257 377.83976645861367 -1450.4985789880097 0 0 0
1063 71 13 -0.5 -676.1699802875935 454.1112891445764 -1444.5032513424496 0 0 0
4930 329 10 1 -1873.6747220009527 582.1318001644543 -1439.0565656483711 0 0 0
4932 329 12 0 -1871.9429808783032 545.7192723340834 -1489.7878496128008 0 0 0
1411 95 1 0 -1752.4044141394536 625.5976260216678 -1473.1981399121055 0 0 0
4480 299 10 1 -2074.9712492991193 1008.7032959058491 -1490.5531045493558 0 0 0
4477 299 7 2 -2029.01361673888 1021.7822905604858 -1450.7073101994517 0 0 0
4474 299 4 0 -1749.8441969520386 1046.2533787262148 -1450.5988496379855 0 0 0
2413 161 13 -0.5 -2356.7996445845693 1383.2913069649758 -1487.86393236234 0 -1 0
2410 161 10 1 -2272.8841028906613 1462.924147413702 -1437.3858081240421 0 -1 0
2412 161 12 0 -2301.5544429362676 1445.6214460054866 -1485.2727946916277 0 -1 0
2411 161 11 1 -2201.3090539075984 -1484.6114152126386 -1363.6090605776412 0 0 0
3774 252 9 0 -1764.1196227733226 -1237.4879013509737 -1351.868995742896 0 0 0
3771 252 6 -0.5 -1715.2714641058608 -1234.2218871230898 -1372.8283297510002 0 0 0
3779 252 14 -1.5 -1693.07769793841 -1233.2361290043555 -1410.6211421346563 0 0 0
3616 242 1 0 -361.6438848080061 -1224.171246927253 -1416.996544728074 0 0 0
3623 242 8 0 -344.2096089232967 -1222.5655204257741 -1358.3668221924038 0 0 0
1813 121 13 -0.5 -2624.2545699851253 -571.4200513796338 -1354.625897590615 0 0 0
1803 121 3 -1.5 -2606.548135290596 -560.2145162516263 -1393.2641149980414 0 0 0
1812 121 12 0 -2557.506422784695 -555.2985334967561 -1408.8849676255509 0 0 0
963 65 3 -1.5 -2730.2740315257097 -393.84596088715335 -1400.3562672694015 0 0 0
973 65 13 -0.5 -2767.2208814840405 -404.269000161759 -1380.6947001058059 0 0 0
2584 173 4 0 -1509.892235075536 -397.13729859958335 -1399.4087101307382 0 0 1
972 65 12 0 -2704.526890570292 -355.4327545730575 -1394.8907982293958 0 0 0
970 65 10 1 -2657.5962585251896 -330.34182178076145 -1360.4331387162679 0 0 0
968 65 8 0 -2792.2027974098255 -228.84551937315584 -1410.5229490415322 0 0 0
965 65 5 0 -2757.782511209808 -288.5639877258692 -1422.4655768892676 0 0 0
2930 196 5 0 -2581.3252120938964 -239.40572641302555 -1373.56651894705 0 0 0
964 65 4 0 -2308.9676027781024 -297.4411492881239 -1367.0953948799045 0 0 0
1079 72 14 -1.5 -334.8614139791163 -233.14395507250435 -1409.7399827696936 0 0 1
961 65 1 0 -2818.0216282806946 -178.48085588663596 -1409.7617192376933 0 0 0
2933 196 8 0 -2626.3854445058064 -194.33102416976868 -1422.6958473415134 0 0 0
2940 196 15 0 -2262.792073091437 -154.18812281615 -1354.129662179318 0 0 0
2929 196 4 0 -2175.43461799349 -201.61867794599783 -1411.8137770006933 0 0 0
2927 196 2 0 -2210.013322997722 -179.52738698310398 -1382.4211069568526 0 0 0
655 44 10 1 -243.15896884716707 47.53189198888512 -1373.56623291321 0 0 0
1711 115 1 0 -338.58167623941387 146.61106248697791 -1383.7063199043969 0 0 0
1423 95 13 -0.5 -1625.0793465326415 435.7535801575295 -1420.5464709714925 0 0 0
1413 95 3 -1.5 -1595.9540757298012 461.798778042586 -1403.8823488142032 0 0 0
1422 95 12 0 -1602.014317029154 497.8255880915096 -1372.6202775185593 0 0 0
1053 71 3 -1.5 -654.9621524865389 483.90333812370227 -1421.5505887435675 0 0 0
1062 71 12 0 -606.2274039064789 493.16619722413424 -1414.5095787980736 0 0 0
1060 71 10 1 -560.6256920020933 498.2113670853682 -1372.3595279951555 0 0 0
1415 95 5 0 -1662.3461060198422 533.7230763106375 -1390.6709629825714 0 0 0
4931 329 11 1 -1885.1928613329544 657.778866999411 -1353.2208218702672 0 0 0
4927 329 7 2 -1874.9769709838408 621.7951344774768 -1392.0274237714527 0 0 0
1418 95 8 0 -1751.6659039067408 603.1512947997403 -1417.184754752714 0 0 0
4654 311 4 0 -960.0296623655998 913.7000040632252 -1358.684304019361 0 0 0
4481 299 11 1 -1984.7487267127717 1033.9799587147374 -1421.221648980203 0 0 0
4479 299 9 0 -1935.629645878671 1034.584154956846 -1375.0423549103843 0 0 0
4485 299 15 0 -1856.8777078471871 1025.8082477037249 -1392.006961179155 0 0 0
4472 299 2 0 -1796.2144754295352 1047.0784806842732 -1413.5961819058746 0 0 0
4081 273 1 0 -1178.6533831787938 983.334097383015 -1374.430535942547 0 0 0
4088 273 8 0 -1128.8359706495569 989.4780266802956 -1365.3106905566137 0 0 0
4651 311 1 0 -1350.1019708135789 1099.7889529831737 -1379.0757112030453 0 0 0
4658 311 8 0 -1376.859030263314 1056.0745588660302 -1356.037627976227 0 0 0
4261 285 1 0 -609.9943851725604 1197.9003272354187 -1378.7364364069206 0 0 0
4238 283 8 0 -2215.194533111779 1280.6953375980872 -1364.1781935238243 0 0 0
4231 283 1 0 -2238.442437696422 1349.7894317976443 -1373.185781383556 0 0 0
2407 161 7 2 -2234.868259205469 1487.5329855295759 -1395.7229258950492 0 -1 0
2409 161 9 0 -2159.7439785873225 -1459.4416490219512 -1319.7738537419243 0 0 0
2406 161 6 -0.5 -2113.3721449813906 -1439.6886513165327 -1299.6806550147319 0 0 0
2414 161 14 -1.5 -2087.8290988584654 -1404.958343522079 -1290.3384319282911 0 0 0
3628 242 13 -0.5 -372.41050239327456 -1359.0679076940314 -1279.4904492607636 0 0 0
3772 252 7 2 -1861.2427317846773 -1248.9499495606506 -1283.646110002124 0 0 0
3776 252 11 1 -1815.4880579667083 -1252.1257819573962 -1313.5581435702427 0 0 0
3780 252 15 0 -1702.2297252502779 -1220.8099551499095 -1318.018836329436 0 0 0
3767 252 2 0 -1631.937984480098 -1219.1286533264288 -1289.0573192067307 0 0 0
3620 242 5 0 -312.7520882037238 -1251.6134462386253 -1293.4373747828174 0 0 0
2669 178 14 -1.5 -22.866299253386583 -812.2468572003304 -1281.8920664538794 0 0 0
1805 121 5 0 -2537.971808084336 -506.4294378635264 -1335.9297814268944 0 0 0
1808 121 8 0 -2508.6191323630414 -450.139186717316 -1318.9816609955574 0 0 0
248 17 8 0 -1266.3213742470143 -437.1293022431581 -1290.3763069045326 0 0 0
241 17 1 0 -1233.6956878532594 -391.13791136602003 -1289.9445904380007 0 0 0
2928 196 3 -1.5 -2557.773814092582 -308.21714992009606 -1311.5183900715117 0 0 0
2938 196 13 -0.5 -2598.726750061649 -310.62199452022344 -1299.593121106302 0 0 0
967 65 7 2 -2613.575161984407 -295.30574809953816 -1333.762348583931 0 0 0
971 65 11 1 -2572.1034054870715 -272.7659106237932 -1307.939477355827 0 0 0
2937 196 12 0 -2530.68889394831 -270.82687144029836 -1331.5636060133945 0 0 0
969 65 9 0 -2513.7974201187944 -238.54656996999094 -1291.762563106591 0 0 0
2935 196 10 1 -2476.889000989429 -233.03906540997465 -1327.781600686797 0 0 0
975 65 15 0 -2441.0798669592755 -243.98118673861538 -1301.3219336546756 0 0 0
962 65 2 0 -2344.6176323006002 -254.47236692143662 -1348.3435655027151 0 0 0
966 65 6 -0.5 -2475.943553210096 -196.76372884996854 -1291.2817890454935 0 0 0
2932 196 7 2 -2427.8364005393646 -195.5344150882926 -1326.8667605515843 0 0 0
974 65 14 -1.5 -2432.8283172941833 -185.72229302059299 -1287.8532220782536 0 0 0
2936 196 11 1 -2382.544791580364 -167.84951583727684 -1318.6426789167817 0 0 0
2934 196 9 0 -2318.617777081913 -148.2926134368817 -1309.3103949109359 0 0 0
2931 196 6 -0.5 -2265.261481291037 -142.30260620286276 -1292.5968124946594 0 0 0
3121 209 1 0 -1098.7212014797333 -18.588152752528053 -1277.445444239976 0 0 0
652 44 7 2 -211.63322669213073 33.56896678843069 -1322.3299738776043 0 0 0
656 44 11 1 -180.78007406995022 18.006120201958655 -1280.9167150398748 0 0 0
1718 115 8 0 -305.6048479226174 150.5020296326768 -1318.325982783208 0 0 0
1715 115 5 0 -341.53428256805876 195.20971437495584 -1287.7422642363554 0 0 0
1057 71 7 2 -525.3254820579217 502.2588664564718 -1322.245629638648 0 0 0
1061 71 11 1 -489.95403022632644 497.7368614073229 -1281.3573512573987 0 0 0
1420 95 10 1 -1572.5010580222292 527.5620324760444 -1325.1429351196157 0 0 0
1417 95 7 2 -1535.2312711555114 552.1796990458527 -1282.3145291540275 0 0 0
4929 329 9 0 -1889.9642276396455 707.7072779732574 -1310.9504634641385 0 0 0
4922 329 2 0 -1990.3153250208466 807.297166163304 -1308.0011344409359 0 0 0
4935 329 15 0 -1924.1485130733743 759.7252278558673 -1325.7442755393618 0 0 0
4926 329 6 -0.5 -1892.3178125569632 760.2853995873061 -1292.2866188685316 0 0 0
4924 329 4 0 -2039.7491501842344 826.3864987681733 -1322.1361989046106 0 0 0
4693 313 13 -0.5 -2847.817778862994 953.9309428927932 -1278.0454545112323 0 0 0
4652 311 2 0 -990.8133066801747 967.01481210556 -1327.7782942328517 0 0 0
4476 299 6 -0.5 -1910.1036618216626 1045.0683577235618 -1328.2787017899136 0 0 0
4484 299 14 -1.5 -1871.2954675950768 1048.1829722334214 -1306.0388376626147 0 0 0
4661 311 11 1 -1133.756200609053 1024.7033842403941 -1282.5351780331823 0 0 0
4085 273 5 0 -1089.574894687194 987.8204273594151 -1314.6779892882412 0 0 0
4092 273 12 0 -1086.1298561226195 994.5095178343836 -1283.4479688184767 0 0 0
4659 311 9 0 -1077.5721582972856 1042.6873916113932 -1309.840459674503 0 0 0
4665 311 15 0 -1028.5782998100437 1008.8539687813295 -1308.2810226038555 0 0 0
5638 376 13 -0.5 -1002.8409328600249 1045.9920803301277 -1279.692610909331 0 0 0
4090 273 10 1 -1045.0740699104808 1045.3352662640652 -1279.0603187068787 0 0 0
4656 311 6 -0.5 -1030.2408710374468 1068.3212192676783 -1309.3205088151828 0 0 0
4664 311 14 -1.5 -1006.6740371230023 1102.34480167717 -1293.8839728448843 0 0 0
5628 376 3 -1.5 -979.4740476299708 1072.1017811258475 -1304.526520474285 0 0 0
5637 376 12 0 -942.8713109285596 1105.0429870852881 -1296.9622529361206 0 0 0
5635 376 10 1 -889.6117055648477 1129.3641891475143 -1279.108823799842 0 0 0
4232 283 2 0 -1875.8994065994918 1272.4962502544463 -1290.8631531464325 0 0 0
4234 283 4 0 -1824.6633767511055 1273.6685205595988 -1314.3208470101747 0 0 0
4268 285 8 0 -644.5927034928009 1222.8246648700667 -1323.0039409009248 0 0 0
4171 279 1 0 -727.8895340003645 1338.5807490733075 -1276.3311377184011 0 0 0
2415 161 15 0 -2165.0058409777894 -1414.4756554384644 -1262.7179586423865 0 0 0
2402 161 2 0 -2157.751761231044 -1358.4442283621306 -1214.4062484923597 0 0 0
2404 161 4 0 -2153.718806735454 -1307.221545591191 -1210.9798935674658 0 0 0
3618 242 3 -1.5 -359.4138312486426 -1344.2622138932277 -1241.3771922376754 0 0 0
3627 242 12 0 -313.92636317246627 -1327.8012812671639 -1229.0550421655896 0 0 0
3625 242 10 1 -252.16094146532208 -1340.4311423316433 -1210.4074738851655 0 0 0
3777 252 12 0 -1966.4055210779081 -1210.7302647631627 -1223.6416470701831 0 0 0
3775 252 10 1 -1914.7560826560511 -1237.270168139926 -1255.3724715485037 0 0 0
3769 252 4 0 -1586.1039196511285 -1233.3937945253017 -1261.597147043574 0 0 0
3778 252 13 -0.5 -2039.0561778820456 -1166.8300442545785 -1201.7597308056074 0 0 0
3768 252 3 -1.5 -2012.627288449068 -1185.076541135603 -1229.699562167093 0 0 0
2661 178 6 -0.5 -28.88450296597826 -838.3707713733176 -1246.5596943244134 0 0 0
2670 178 15 0 -16.057329629503496 -785.7793826133525 -1223.2429577665903 0 0 0
2657 178 2 0 -3.8230711842830334 -751.6121261493339 -1274.5582441411273 0 0 0
916 62 1 0 -901.3576406891934 -627.3194371385889 -1272.0559716075252 0 0 0
923 62 8 0 -895.2429863671026 -604.4535436356867 -1218.4052459209868 0 0 0
245 17 5 0 -1298.7488543390602 -482.9204578596176 -1224.7982676043468 0 0 0
1801 121 1 0 -2527.1970035728705 -411.95867370290466 -1271.3995145927647 0 0 0
2939 196 14 -1.5 -2234.1123582314276 -149.63295000393813 -1262.6910695529816 0 0 0
647 44 2 0 -83.02955356515398 -91.61309802076632 -1205.1387593849433 0 0 0
3128 209 8 0 -1121.8078603900908 -20.096250823514833 -1215.8042383919085 0 0 0
5059 338 4 0 -667.0210084369827 -4.178446049984727 -1269.0283321078823 0 0 0
5057 338 2 0 -659.5690462381401 -20.143102108616702 -1227.9780668851079 0 0 0
660 44 15 0 -111.15887345014893 -42.285127609135294 -1206.2141754775473 0 0 0
654 44 9 0 -132.71766769458583 10.811142648097338 -1233.8304378081962 0 0 0
1723 115 13 -0.5 -438.78937129260095 220.92099738819724 -1236.035773342123 0 0 0
1713 115 3 -1.5 -409.11468182266674 250.02177786254813 -1225.9565806862786 0 0 0
1722 115 12 0 -361.8371262146024 256.3409329067964 -1237.1069498271638 0 0 0
1720 115 10 1 -311.87649241037735 298.4954980107977 -1236.048501313195 0 0 0
1717 115 7 2 -267.9199065872283 339.2298670462121 -1221.4591431011822 0 0 0
1721 115 11 1 -230.05027624724798 372.3097759759224 -1201.4849030834935 0 0 0
1059 71 9 0 -449.6184882004127 499.96929250567416 -1233.7607562313995 0 0 0
1056 71 6 -0.5 -404.5333224973945 510.66906415322234 -1202.9745236012093 0 0 0
1421 95 11 1 -1504.3340098363428 576.0485222319044 -1244.1806619376353 0 0 0
5161 345 1 0 -2057.005278503761 624.1248876553027 -1245.033227261444 0 0 0
4688 313 8 0 -2937.228657840639 810.0239893498031 -1201.5286882428386 0 0 0
4934 329 14 -1.5 -1881.3137661079497 789.7550081792635 -1260.9450853610767 0 0 0
4685 313 5 0 -2891.7872088964964 852.0382882924597 -1231.3274523917448 0 0 0
4692 313 12 0 -2824.448675687335 894.7477828314844 -1220.5604926863928 0 0 0
4683 313 3 -1.5 -2825.1303615104894 921.6717232182341 -1260.6430439680594 0 0 0
4083 273 3 -1.5 -1128.5807589391613 968.821963408725 -1265.9457909109126 0 0 0
4655 311 5 0 -1357.189148878136 1022.001539212821 -1269.2867885852252 0 0 0
4662 311 12 0 -1296.7882557178555 1003.0634195062478 -1213.0150448665715 0 0 0
4660 311 10 1 -1241.753281441423 1006.002507559724 -1243.1451640769865 0 0 0
4657 311 7 2 -1183.6883166904045 1012.8795301085829 -1265.8300938145946 0 0 0
4093 273 13 -0.5 -1170.3748529417317 976.0243043658683 -1269.2671628945177 0 0 0
4087 273 7 2 -997.9539624192358 1080.2825572730192 -1261.8895838832161 0 0 0
4091 273 11 1 -951.4184260425822 1104.6280719106692 -1246.5300358095976 0 0 0
4893 327 3 -1.5 -848.6428845210363 1113.4838333812334 -1231.1162632463988 0 0 0
4183 279 13 -0.5 -841.5078519508861 1124.1144252269012 -1229.7354241373753 0 0 0
4902 327 12 0 -801.6601496166892 1118.6234831999573 -1206.0150247144993 0 0 0
5633 376 8 0 -1082.9264112860542 1186.7585539438683 -1201.6621775653036 0 0 0
5630 376 5 0 -1002.1944656920884 1139.1478364490483 -1230.1803825011314 0 0 0
4089 273 9 0 -890.2282115300264 1125.381746875748 -1231.3632176384847 0 0 0
4903 327 13 -0.5 -862.4640649896354 1125.8931590663028 -1269.3550013202723 0 0 0
5632 376 7 2 -843.1277905259005 1158.2501150342016 -1251.4794216411456 0 0 0
4086 273 6 -0.5 -848.4895152044031 1160.205711049651 -1227.539818654996 0 0 0
4173 279 3 -1.5 -806.5679397546251 1128.475049808115 -1254.000059841978 0 0 0
4094 273 14 -1.5 -808.659777874113 1176.6476816515249 -1238.1817998167423 0 0 0
4182 279 12 0 -762.5228325153109 1149.099958168031 -1244.5778350267433 0 0 0
5636 376 11 1 -798.1275290449199 1178.196326121682 -1230.5840969550725 0 0 0
4180 279 10 1 -701.9955536956318 1144.4807259338534 -1217.756915702414 0 0 0
5634 376 9 0 -734.9363510829904 1184.333280910515 -1212.8698285636237 0 0 0
5383 359 13 -0.5 -686.5918679827031 1185.0521528552704 -1203.2519472746087 0 0 0
5373 359 3 -1.5 -646.6539416822892 1179.345337579198 -1217.7132171005985 0 0 0
4235 283 5 0 -2186.303398299021 1265.6462188389428 -1272.3298146174052 0 0 0
4239 283 9 0 -1928.8493116783384 1270.1888842448086 -1205.891201834837 0 0 0
4244 283 14 -1.5 -1835.2842892852614 1266.6400448989505 -1207.6763699326264 0 0 0
4175 279 5 0 -773.4405185002826 1215.563246427306 -1266.3386508763404 0 0 0
4265 285 5 0 -606.9814720330568 1247.5781597111559 -1260.3210601813607 0 0 0
4245 283 15 0 -1909.655700977941 1279.7690879414613 -1241.5455748403122 0 0 0
4236 283 6 -0.5 -1876.92594984843 1279.0641755712113 -1213.9307373572872 0 0 0
4178 279 8 0 -753.7038099014859 1301.070248760334 -1272.2194022730116 0 0 0
3622 242 7 2 -199.5694994433752 -1359.6064290391637 -1185.500347738867 0 0 0
3626 242 11 1 -154.17528422792387 -1368.385052074015 -1158.8558309380182 0 0 0
3624 242 9 0 -100.34825205847733 -1395.7076756034917 -1126.3674492714738 0 0 0
3770 252 5 0 -1932.1159832720941 -1184.5812213826946 -1140.2635793279767 0 0 0
2666 178 11 1 -87.18727943075599 -851.0136544588665 -1143.38287492902 0 0 0
2664 178 9 0 -42.518427446249746 -841.3562356648112 -1192.2846667049173 0 0 0
1618 108 13 -0.5 -1518.5295065260532 -629.2749134622258 -1155.3336174510032 0 0 0
5523 369 3 -1.5 -2629.1621523804934 -549.3808703569457 -1152.4929884187923 0 0 0
5533 369 13 -0.5 -2621.605387938724 -533.7546265460002 -1191.206812181978 0 0 0
920 62 5 0 -911.8704163709123 -573.2768371899857 -1163.5807966274003 0 0 0
252 17 12 0 -1287.9012403115676 -482.87176357828594 -1131.6102150988916 0 0 0
649 44 4 0 -42.82061933541884 -116.84622216121495 -1181.402182642171 0 0 0
3125 209 5 0 -1122.4724103328258 -20.391800405848283 -1153.3386009519995 0 0 0
5070 338 15 0 -651.7653063917272 -20.309424133226678 -1174.9478514840796 0 0 0
5061 338 6 -0.5 -629.0012748556966 16.45236010352651 -1131.9705036701978 0 0 0
5069 338 14 -1.5 -584.4778032924996 20.305435168623067 -1135.2281633565171 0 0 0
659 44 14 -1.5 -123.5746767584273 2.6852531003657263 -1137.7732449805824 0 0 0
651 44 6 -0.5 -116.5151787364753 10.818674756250674 -1180.0865124527752 0 0 0
1054 71 4 0 -285.83661578463347 344.9210942500225 -1181.5202437012147 0 0 0
1065 71 15 0 -385.26473065632103 435.33698030895584 -1199.8036961709013 0 0 0
1052 71 2 0 -309.77108601323533 385.6626012065765 -1196.0725090180892 0 0 0
1719 115 9 0 -194.28313486326476 417.9607518976763 -1172.4439386611864 0 0 0
1716 115 6 -0.5 -150.70048012639978 435.6856766219308 -1146.0520467328122 0 0 0
1724 115 14 -1.5 -106.45406991003179 436.4557571138481 -1145.2165479468133 0 0 0
1064 71 14 -1.5 -363.2891640303752 500.8871323464201 -1190.9621243967085 0 0 0
1419 95 9 0 -1465.2037483636893 588.9749995951443 -1192.8225869980051 0 0 0
1298 87 8 0 -1048.1681465265074 526.66827505021 -1136.589899189769 0 0 0
1291 87 1 0 -992.3230212645976 551.6152811436887 -1189.064693640158 0 0 0
5168 345 8 0 -2031.282267820908 608.5647483218376 -1187.4438639907542 0 0 0
1416 95 6 -0.5 -1430.1006341962168 614.8108361584109 -1163.335232492419 0 0 0
1425 95 15 0 -1474.8560195348462 653.1611709615095 -1155.566552677445 0 0 0
1424 95 14 -1.5 -1403.1000707054295 649.7616735783591 -1157.2294922403598 0 0 0
1412 95 2 0 -1501.3049008693724 699.1009537208965 -1127.321940128187 0 0 0
4681 313 1 0 -2980.008621639415 806.0412621581856 -1163.1795712918322 0 0 0
4690 313 10 1 -2807.793122714513 889.1883682476287 -1157.8509203491249 0 0 0
4663 311 13 -0.5 -1370.7539432036467 971.5417505556221 -1181.4586792760103 0 0 0
4653 311 3 -1.5 -1328.0742975639048 973.1671471828208 -1184.0336212930963 0 0 0
4895 327 5 0 -826.8947813161393 1045.7849237367261 -1142.2489244548503 0 0 0
5374 359 4 0 -203.39712759797465 1115.2148273047617 -1148.2127316903375 0 0 0
4095 273 15 0 -860.3899116090707 1130.72439136745 -1179.8718914373146 0 0 0
4082 273 2 0 -788.9112716015497 1135.0822040771352 -1130.5434875154167 0 0 0
4900 327 10 1 -747.9596494826744 1146.0841802208226 -1193.9494533070113 0 0 0
5631 376 6 -0.5 -686.7403799112403 1175.1952995288843 -1187.8007715556203 0 0 0
4897 327 7 2 -693.398027412457 1163.5321990074244 -1170.810289886542 0 0 0
4084 273 4 0 -723.6425073884257 1158.257937112809 -1127.8358725715261 0 0 0
4177 279 7 2 -651.1390009303364 1149.2112526917438 -1182.3730449135487 0 0 0
5639 376 14 -1.5 -661.9702649059287 1176.5641051476955 -1150.7020965704019 0 0 0
4901 327 11 1 -645.4478443194174 1179.8137395006133 -1152.0461807117963 0 0 0
5382 359 12 0 -608.7790817083778 1189.1659506087367 -1191.2482624440968 0 0 0
4181 279 11 1 -601.0933016245637 1149.6559488564055 -1159.7888350799585 0 0 0
4179 279 9 0 -541.2839194538655 1173.883152008623 -1139.1806432859362 0 0 0
4176 279 6 -0.5 -486.3273227507298 1183.9812842401016 -1139.4121099105903 0 0 0
5385 359 15 0 -336.06118826252884 1192.539675208962 -1154.2674488353173 0 0 0
5372 359 2 0 -244.83930021034163 1138.0800267685127 -1130.5508352804154 0 0 0
4362 291 12 0 -2199.4754309277614 1259.7198911956618 -1135.0397479218002 0 0 0
4360 291 10 1 -2135.499781495582 1250.2134223210671 -1142.0315859368152 0 0 0
4357 291 7 2 -2074.7996813283276 1251.3343118978028 -1151.2414290654744 0 0 0
4361 291 11 1 -2021.940464055456 1248.6308025031708 -1161.674341362568 0 0 0
4359 291 9 0 -1954.7565814101736 1247.3217772137775 -1157.0539745278554 0 0 0
4356 291 6 -0.5 -1902.5119171649503 1237.3007237123643 -1166.2752488020978 0 0 0
4364 291 14 -1.5 -1862.3159057844382 1252.9743441190108 -1173.3603166000753 0 0 0
5626 376 1 0 -1124.6734888490348 1225.078408518899 -1199.7618302898497 0 0 0
5640 376 15 0 -724.467106122266 1205.4004325661965 -1140.1751460081 0 0 0
4273 285 13 -0.5 -653.1197664408379 1203.8717016173377 -1189.8255635877078 0 0 0
4263 285 3 -1.5 -624.971909513767 1217.834499576531 -1161.4776320691972 0 0 0
5375 359 5 0 -664.7637788820282 1234.4810933818487 -1140.2021624470244 0 0 0
4899 327 9 0 -584.1674629746082 1206.8886104093378 -1145.889548476629 0 0 0
5380 359 10 1 -546.3222237420872 1209.9352057410924 -1180.7867385590207 0 0 0
4272 285 12 0 -585.9456768720493 1249.995897317443 -1167.6392718514312 0 0 0
4896 327 6 -0.5 -533.9376474251078 1216.9111816178377 -1126.4563750204047 0 0 0
4270 285 10 1 -523.0849174771109 1257.0694362157299 -1163.3223028677194 0 0 0
5377 359 7 2 -487.15458619378614 1221.5488833933548 -1167.9713971457106 0 0 0
4267 285 7 2 -461.3590513851884 1257.3982148423224 -1160.9717393695362 0 0 0
4904 327 14 -1.5 -494.02589061291206 1235.8017565483196 -1130.4987921911252 0 0 0
4184 279 14 -1.5 -452.6788284698477 1211.0892216544612 -1150.2502230400366 0 0 0
5381 359 11 1 -433.57545441436355 1227.428370854446 -1163.9400190680476 0 0 0
4271 285 11 1 -408.62953434988873 1258.4618643680226 -1146.6444573554816 0 0 0
5379 359 9 0 -369.6193629374817 1225.1334065298277 -1149.8614328708645 0 0 0
5376 359 6 -0.5 -313.21061152862245 1234.1799237486189 -1150.6213870665931 0 0 0
5384 359 14 -1.5 -279.0811863549759 1256.853038621334 -1167.9410063054836 0 0 0
4274 285 14 -1.5 -258.0799843817916 1235.336400749764 -1132.808336591405 0 0 0
4233 283 3 -1.5 -2209.3771581807705 1298.7254147989888 -1163.736003159201 0 0 0
4243 283 13 -0.5 -2217.6145910129426 1324.6335092827073 -1130.1963076468537 0 0 0
4240 283 10 1 -2106.065102963842 1285.225214503391 -1176.8944264149425 0 0 0
4242 283 12 0 -2168.0766663960244 1280.6011147994843 -1180.9954032337812 0 0 0
4237 283 7 2 -2045.5897531584678 1283.312563962916 -1189.4892243310453 0 0 0
4241 283 11 1 -1992.4666224058178 1282.8867251994568 -1197.3717384981087 0 0 0
4355 291 5 0 -2220.137953088938 1368.129623776367 -1166.6308596651738 0 0 0
4358 291 8 0 -2211.565972819659 1454.1003900576686 -1169.657811892966 0 0 0
3630 242 15 0 -98.34927661172415 -1462.29067736079 -1094.1535176212406 0 0 0
3629 242 14 -1.5 -22.575819801028263 -1451.414144732726 -1123.0545715533633 0 0 0
3621 242 6 -0.5 -53.40206825333199 -1419.7025543614388 -1114.7150061370048 0 0 0
3773 252 8 0 -1880.5290539806056 -1170.0243953768663 -1110.8708434001628 0 0 0
3766 252 1 0 -1832.226849486627 -1187.5064379167127 -1077.099618206487 0 0 0
2665 178 10 1 -176.45513678168967 -875.8898955936259 -1075.1125420188193 0 0 0
2662 178 7 2 -130.1374773459939 -865.4252710570397 -1114.425699280095 0 0 0
1306 88 1 0 -178.26653780381005 -793.4768874550315 -1062.1773692758316 0 0 0
1608 108 3 -1.5 -1505.0041453553756 -618.3974508415453 -1115.8296691805479 0 0 0
5532 369 12 0 -2599.139600077823 -558.3856288386498 -1112.6822034833815 0 0 0
5530 369 10 1 -2539.362229165158 -549.8372053546212 -1092.6484189859973 0 0 0
5527 369 7 2 -2484.668412818733 -534.8270178227365 -1068.6838967243355 0 0 0
1617 108 12 0 -1476.2597065164166 -583.624559708723 -1094.9457122692247 0 0 0
1615 108 10 1 -1416.8484895163228 -554.9022070287638 -1085.4942408999368 0 0 0
253 17 13 -0.5 -1358.040302268676 -529.4366180986177 -1119.7414552977218 0 0 0
1612 108 7 2 -1364.591253245155 -521.1120736122947 -1081.622187565921 0 0 0
243 17 3 -1.5 -1336.6897867688765 -492.73521044908347 -1122.6600491335225 0 0 0
1616 108 11 1 -1318.531163805628 -494.4477321595868 -1079.8840908804948 0 0 0
250 17 10 1 -1223.7947759148226 -476.3523233111521 -1117.0201096008534 0 0 0
1611 108 6 -0.5 -1209.2596951086134 -470.93352532566513 -1110.7809672673627 0 0 0
1614 108 9 0 -1256.8153259984515 -475.74533779940185 -1085.2780321921884 0 0 0
1620 108 15 0 -1196.9974602563743 -507.2165538266707 -1050.5847065172147 0 0 0
247 17 7 2 -1165.680331056624 -477.130810073048 -1097.4172621310188 0 0 0
251 17 11 1 -1113.4869210185457 -476.2293059466478 -1081.991209330921 0 0 0
249 17 9 0 -1048.637900648408 -478.4641232562621 -1066.397127407109 0 0 0
928 62 13 -0.5 -986.1575367798735 -499.912096095216 -1055.3513059584338 0 0 0
246 17 6 -0.5 -995.3264278116405 -459.7890545437002 -1070.285835021473 0 0 0
918 62 3 -1.5 -954.5820862816227 -476.26605296635904 -1071.404857962149 0 0 0
927 62 12 0 -904.8948516702632 -483.9481398612089 -1082.0293767420546 0 0 0
925 62 10 1 -847.4338348677234 -484.48425109122655 -1061.1531058115622 0 0 0
922 62 7 2 -788.4782882267958 -470.84282645156543 -1050.935538651167 0 0 0
1619 108 14 -1.5 -1174.1888456791596 -444.1750460903782 -1119.580291440078 0 0 0
254 17 14 -1.5 -966.9835641221687 -428.16581540730897 -1079.2058779519161 0 0 0
930 62 15 0 -642.2197431556514 -397.2818001579826 -1056.0131785403908 0 0 0
3382 226 7 2 -600.8797338835312 -316.3994234867941 -1077.2370802720668 0 0 0
3385 226 10 1 -650.8528299403047 -341.98217913533273 -1051.6739230864032 0 0 0
917 62 2 0 -600.4991196743517 -365.6391778339004 -1077.2154222884494 0 0 0
919 62 4 0 -573.4220195415154 -338.79545592435085 -1115.867049833145 0 0 0
3386 226 11 1 -553.619153832087 -297.5407413184631 -1095.9640385396053 0 0 0
5443 363 13 -0.5 -525.3834902616815 -284.8175521454673 -1068.9118470314538 0 0 0
3384 226 9 0 -493.7823889628631 -271.7339165633956 -1103.7105140372444 0 0 0
3381 226 6 -0.5 -458.7807857386296 -231.99076307545798 -1100.4895251122987 0 0 0
5433 363 3 -1.5 -483.74864258422116 -279.5308162460849 -1058.8898127949149 0 0 0
3390 226 15 0 -446.8449109326542 -261.1232194163472 -1065.3400981622653 0 0 0
3389 226 14 -1.5 -446.3017542220048 -189.6780175222489 -1095.1391769837305 0 0 0
3132 209 12 0 -1127.6897444250774 -31.35955105854921 -1057.1604575010676 0 0 0
5067 338 12 0 -901.102287196967 -55.32588548769873 -1061.1649518120707 0 0 0
5065 338 10 1 -843.9851126841667 -50.59511268555741 -1083.9952678834222 0 0 0
3122 209 2 0 -832.8881144939256 -2.810922135762229 -1053.8173238799986 0 0 0
5062 338 7 2 -783.1181266285525 -40.80753250743106 -1085.9941023052438 0 0 0
3134 209 14 -1.5 -819.5162040846914 -47.6084131927273 -1072.9502620587366 0 0 0
5066 338 11 1 -733.1006670861321 -20.861946348662997 -1092.6361192601416 0 0 0
5064 338 9 0 -670.8296383098623 -10.665672164613541 -1107.0493704295907 0 0 0
3124 209 4 0 -804.395421332583 47.63899429213166 -1058.6352783837606 0 0 0
993 67 3 -1.5 -1140.5080863250314 264.6679108036084 -1065.9170676068425 0 0 0
1295 87 5 0 -1021.600728762175 493.1389761710613 -1081.5818867997918 0 0 0
1725 115 15 0 -212.91644811952972 459.4989103528724 -1098.0102898789773 0 0 0
5165 345 5 0 -2032.467206456022 620.2384065527181 -1114.1072262784373 0 0 0
5163 345 3 -1.5 -2108.3037916564954 681.4615989111101 -1050.2093524402703 0 0 0
1414 95 4 0 -1519.65198247133 714.4241214947529 -1073.6786692124085 0 0 0
4687 313 7 2 -2790.7062561212247 872.1420280268271 -1100.8787691628193 0 0 0
4691 313 11 1 -2775.467930877213 851.8061704374745 -1053.659712714023 0 0 0
4352 291 2 0 -1861.4670055877393 1177.4227608954907 -1082.39693893795 0 0 0
4185 279 15 0 -508.9463888187301 1169.923027341258 -1091.6297159461799 0 0 0