LAMMPS data file via write_data, version 27 Jun 2024, timestep = 13440000, units = real

5730 atoms
15 atom types
5522 bonds
16 bond types
5730 angles
15 angle types

-3000 3000 xlo xhi
-1500 1500 ylo yhi
-1500 1500 zlo zhi

Masses

1 241.19
2 73.54000000000001
3 330.71
4 235.16
5 68.06999999999999
6 353.53
7 223.38
8 41.1
9 216.91
10 155.15
11 147.32
12 264.65
13 300.8
14 326.05
15 85.20999999999999

Pair Coeffs # lj/cut/coul/debye/gpu

1 0.71637 40.7505
2 0.665709 48.1397
3 1.15033 39.2216
4 0.726774 43.8077
5 0.514724 53.3428
6 1.17127 41.7847
7 1.2256 38.5601
8 0.675431 54.5696
9 1.26117 43.78
10 0.939007 42.5209
11 0.960667 41.1825
12 1.30988 48.0761
13 1.36645 37.7114
14 1.35529 39.2179
15 0.592003 47.2602

Bond Coeffs # harmonic

1 0.003 59.228
2 0.008 56.48
3 0.001 69.324
4 3.207 42.88
5 0.11 49.807
6 0.002 74.968
7 0.001 91.635
8 0.145 54.383
9 2.709 44.406
10 1.71 61.679
11 1.625 54.051
12 0.207 66.185
13 0.002 64.76
14 0.079 63.886
15 0.2 40
16 0.2 40

Angle Coeffs # harmonic

1 11.427 158.273
2 50.464 132.042
3 8.207 156.514
4 92.705 149.394
5 100 174.44
6 3.15 145.53
7 48.938 159.031
8 17.401 129.945
9 15.735 56.441
10 60 172.254
11 60.285 168.396
12 11.83 99.091
13 150 107.995
14 27.746 149.925
15 7.483 160.775

Atoms # full

2563 171 13 -0.5 -1557.0282317112003 -1285.92580049176 -1470.6681020462358 0 0 1
2564 171 14 -1.5 -1190.8657360090053 -1279.3352570830577 -1451.927489056772 0 0 1
3779 252 14 -1.5 -1683.2807404821572 -1201.165652006848 -1433.984547868282 0 0 0
2556 171 6 -0.5 -1225.110277690523 -1260.2072023140365 -1474.0030631050809 0 0 1
3780 252 15 0 -1745.7309486171412 -1181.4091617081199 -1479.0507986083835 0 0 0
3774 252 9 0 -1759.0780889983841 -1147.7996062067248 -1432.3682588116073 0 0 0
3771 252 6 -0.5 -1725.6586755409892 -1188.899893151916 -1432.6190671067068 0 0 0
1084 73 4 0 -2446.4107871061433 -1073.569309753923 -1485.6102743657393 0 0 1
2584 173 4 0 -1718.778313592336 -464.5516209557091 -1426.2589933158201 0 0 1
2582 173 2 0 -1717.3145914168642 -458.83615083823764 -1489.4003693600787 0 0 1
968 65 8 0 -2791.602048231256 -234.81180059545304 -1443.8916962397939 0 0 0
961 65 1 0 -2801.182555019316 -207.46288685463307 -1465.213515890172 0 0 0
1079 72 14 -1.5 -372.50978009956617 -214.23232662724138 -1466.9214942621604 0 0 1
650 44 5 0 -307.3036313358592 -92.54867259316941 -1471.751670824298 0 0 0
658 44 13 -0.5 -276.4208909411212 55.52704666909305 -1428.9859589375394 0 0 0
4921 329 1 0 -1977.1812699895856 238.46634182535993 -1444.7655890909336 0 0 0
4925 329 5 0 -1971.7500385702556 361.0153602706484 -1455.7765037035356 0 0 0
4932 329 12 0 -1903.8209599908841 445.8230182120156 -1494.7820642773904 0 0 0
4930 329 10 1 -1913.0455076795247 496.3286079783575 -1455.4511861727663 0 0 0
1055 71 5 0 -519.4999346882719 453.08099742944347 -1493.3806506996375 0 0 0
1418 95 8 0 -1760.7675981841087 587.0503874941248 -1431.383401159893 0 0 0
1423 95 13 -0.5 -1595.4850943678296 545.6158376370144 -1479.9286726722137 0 0 0
1413 95 3 -1.5 -1593.1123690396719 540.7928470121208 -1437.2379168391094 0 0 0
4473 299 3 -1.5 -2115.473714622545 958.9891760382832 -1494.7253990819136 0 0 0
4483 299 13 -0.5 -2114.0827412544145 917.9262245013729 -1482.315012594229 0 0 0
1409 94 14 -1.5 -2071.3850660844623 938.7920223617052 -1469.7757860954225 0 0 1
4088 273 8 0 -983.005585895544 940.717988003197 -1469.8426593280863 0 0 0
4482 299 12 0 -2089.1349475235306 998.5986327251293 -1480.6343996232526 0 0 0
4480 299 10 1 -2035.114909345032 1018.6971560541771 -1454.9586025243268 0 0 0
4477 299 7 2 -1980.7414543579403 1030.7408357285692 -1428.7023703096283 0 0 0
2410 161 10 1 -2248.025726993504 1494.7498114792547 -1491.79897632344 0 -1 0
2407 161 7 2 -2228.3049714941676 1478.8066564481135 -1435.7038164911448 0 -1 0
3623 242 8 0 -308.96574050251223 -1361.371520676701 -1362.1547630601156 0 0 0
3616 242 1 0 -342.7610281469294 -1314.683168469844 -1384.026695427352 0 0 0
3775 252 10 1 -1907.580033571053 -1056.3925685512156 -1383.969969542372 0 0 0
3776 252 11 1 -1815.602939981361 -1117.2381440218765 -1416.8072535246645 0 0 0
3772 252 7 2 -1858.5029824357914 -1086.5778047480424 -1403.156637839318 0 0 0
3777 252 12 0 -1955.0081380873378 -1023.8907650059126 -1359.99003542915 0 0 0
1806 121 6 -0.5 -2429.1781545556983 -697.552978037811 -1399.73949025113 0 0 0
1814 121 14 -1.5 -2395.5126479291075 -713.4669800219784 -1376.638344545561 0 0 0
1804 121 4 0 -2305.0443525911087 -680.9887271456129 -1388.4461966480924 0 0 0
1811 121 11 1 -2512.3005488062304 -614.0996165060405 -1396.0393521607414 0 0 0
1809 121 9 0 -2466.4043760499344 -660.0030417029634 -1409.1461746152752 0 0 0
1815 121 15 0 -2413.583421778389 -656.1251408508131 -1414.3287271008999 0 0 0
1802 121 2 0 -2364.456694986453 -664.4128848405084 -1386.4726260790355 0 0 0
2926 196 1 0 -2575.0179541953685 -552.3822060552949 -1423.7120217473655 0 0 0
1807 121 7 2 -2541.194239545484 -571.3326122758702 -1379.9318264268559 0 0 0
241 17 1 0 -1266.8061611036803 -558.6951290081767 -1416.0272185791691 0 0 0
248 17 8 0 -1250.7827116723627 -531.7386523910652 -1365.576731607014 0 0 0
1810 121 10 1 -2574.196946925806 -519.4277510158686 -1371.1520932259316 0 0 0
2933 196 8 0 -2572.70928999459 -481.9542394959081 -1404.8791087062305 0 0 0
1812 121 12 0 -2607.6649480903257 -469.2755357991315 -1354.0932411227493 0 0 0
2930 196 5 0 -2559.2714527654834 -414.8927333521216 -1368.456551915731 0 0 0
1803 121 3 -1.5 -2616.856464538738 -421.4122022353053 -1358.0030736024237 0 0 0
965 65 5 0 -2807.5802212762433 -244.69433830917473 -1378.4985516970746 0 0 0
964 65 4 0 -2549.2221825986817 -119.17706192978481 -1351.286250515422 0 0 0
657 44 12 0 -291.03011402251065 -20.47027382472782 -1393.1212897297432 0 0 0
648 44 3 -1.5 -302.1602419044795 25.910743015312597 -1410.8233650910563 0 0 0
4928 329 8 0 -1949.869376719857 274.5077611418852 -1423.039023495262 0 0 0
1063 71 13 -0.5 -542.1817050160162 342.31559621134824 -1367.9449655954193 0 0 0
1718 115 8 0 -348.4732828530523 348.69435652227963 -1364.7897225971958 0 0 0
1711 115 1 0 -301.3856558581368 323.3320164436532 -1387.4742454484983 0 0 0
1053 71 3 -1.5 -540.2089971576584 378.53590802952556 -1391.0536126814166 0 0 0
1062 71 12 0 -506.24723977428533 416.42749895574553 -1388.7261687997511 0 0 0
1060 71 10 1 -455.50272074959076 448.97156836695723 -1361.0376696972796 0 0 0
4927 329 7 2 -1915.7309726054596 541.6530850361884 -1414.1526185222701 0 0 0
4931 329 11 1 -1916.5428312762108 583.2760795750933 -1380.955203783271 0 0 0
1411 95 1 0 -1806.6689926933996 576.2086118684209 -1414.6047566933578 0 0 0
1415 95 5 0 -1685.8758503326442 597.1193914140379 -1414.1153730227386 0 0 0
1422 95 12 0 -1598.1567901295625 572.092089425518 -1401.0573825337908 0 0 0
1420 95 10 1 -1570.6516202586113 611.6826347295963 -1359.2491406073416 0 0 0
4085 273 5 0 -1030.1293840369062 939.7306759174436 -1419.3112408630868 0 0 0
4481 299 11 1 -1931.8315241443302 1044.9670465511124 -1411.5007417443526 0 0 0
4485 299 15 0 -1817.6380282797168 1044.1564893265577 -1383.144109864398 0 0 0
4472 299 2 0 -1742.6786542659943 1014.4061007014474 -1374.5545764791727 0 0 0
4474 299 4 0 -1696.120191617945 996.6022360721443 -1353.4441639963786 0 0 0
4479 299 9 0 -1870.2465334942235 1071.2529950637704 -1399.6300901569953 0 0 0
4476 299 6 -0.5 -1833.6340510719103 1097.574051960301 -1367.4781499515313 0 0 0
4231 283 1 0 -2179.3035882496697 1406.3082242469136 -1371.2496522883182 0 0 0
2411 161 11 1 -2205.1312887282743 1463.1137193788384 -1390.5690436066254 0 -1 0
3620 242 5 0 -265.3227896541685 -1370.454580381516 -1303.3273345956043 0 0 0
3778 252 13 -0.5 -2020.8120907703233 -1036.110715064349 -1304.148631687918 0 0 0
3768 252 3 -1.5 -2001.2580776066898 -1028.31368318254 -1341.9285633478685 0 0 0
2657 178 2 0 -0.27400355677456256 -896.0950761815486 -1279.2429587693948 0 0 0
245 17 5 0 -1232.1457853975778 -536.1487975938584 -1280.1457576143841 0 0 0
1813 121 13 -0.5 -2600.5486796652194 -390.7606775074885 -1332.7667531628344 0 0 0
963 65 3 -1.5 -2839.0145321707337 -322.81100944359997 -1302.1027234978387 0 0 0
972 65 12 0 -2792.7163176782988 -315.18540959336866 -1316.8838911171492 0 0 0
970 65 10 1 -2727.923044729719 -320.2938374940724 -1305.6616980167726 0 0 0
967 65 7 2 -2667.1539502737974 -331.2074659909652 -1304.7157978814164 0 0 0
2938 196 13 -0.5 -2636.2160674005713 -349.2233810694377 -1290.4381821884863 0 0 0
2928 196 3 -1.5 -2617.747303708494 -354.70112492829446 -1328.661845539999 0 0 0
2937 196 12 0 -2567.920694947735 -358.09964647300194 -1337.638723307197 0 0 0
971 65 11 1 -2613.163545569352 -333.22752061034174 -1302.3658889219305 0 0 0
969 65 9 0 -2549.3754900736762 -319.0619317526476 -1311.8968066799357 0 0 0
2935 196 10 1 -2508.4008412137014 -334.63863166895925 -1322.6900531945446 0 0 0
966 65 6 -0.5 -2506.627551949024 -309.31280216919055 -1345.042607713668 0 0 0
2932 196 7 2 -2455.316416845895 -308.3222977955809 -1305.2924888754594 0 0 0
974 65 14 -1.5 -2462.6044262247956 -301.7908527515091 -1345.3791704582761 0 0 0
973 65 13 -0.5 -2872.715201095377 -296.5487805182877 -1302.2217822457014 0 0 0
975 65 15 0 -2520.6292404112114 -253.94257358760095 -1330.0142110157872 0 0 0
2936 196 11 1 -2410.005488801269 -284.6561695739212 -1286.0722934975004 0 0 0
962 65 2 0 -2524.1437803938156 -173.75558115575467 -1344.2689259484437 0 0 0
652 44 7 2 -254.826117337017 -81.50354356026376 -1287.134287207424 0 0 0
5059 338 4 0 -564.3756292235353 -14.141660069375497 -1280.8301243071999 0 0 0
655 44 10 1 -273.111829957351 -53.30185778697652 -1338.9812080992265 0 0 0
1715 115 5 0 -370.98259042866084 380.83126246186936 -1300.8596351053468 0 0 0
1057 71 7 2 -409.71585212211386 475.4182188369433 -1329.085374097444 0 0 0
1061 71 11 1 -365.3007969932904 496.5067813841652 -1307.0605071736625 0 0 0
1065 71 15 0 -237.77547201207227 523.3412842357739 -1336.1935489092448 0 0 0
1059 71 9 0 -309.2080331190807 527.3549497901259 -1290.6364353678186 0 0 0
1052 71 2 0 -169.80508116275936 541.4617609787301 -1336.7645639573655 0 0 0
1054 71 4 0 -121.96808821665864 575.8033968255277 -1335.0955085795028 0 0 0
4929 329 9 0 -1918.8916869527593 626.1800338902191 -1329.5439071487335 0 0 0
4926 329 6 -0.5 -1918.9661527820867 668.7898410351991 -1297.997525331526 0 0 0
1417 95 7 2 -1542.9405779186527 654.0252633022213 -1323.639077205935 0 0 0
1421 95 11 1 -1513.1236855310578 683.3933886828306 -1289.6950785801646 0 0 0
4663 311 13 -0.5 -1339.0086231258679 854.9983455211503 -1312.1376189877913 0 0 0
4653 311 3 -1.5 -1302.8857135656494 855.3525483038519 -1288.384139268881 0 0 0
4662 311 12 0 -1271.674103607045 895.6638859138413 -1277.0032470021126 0 0 0
4093 273 13 -0.5 -1139.6734828471594 924.9749568259689 -1285.3012336767354 0 0 0
4083 273 3 -1.5 -1113.507901968337 955.2013165166309 -1300.784635750844 0 0 0
4092 273 12 0 -1062.8350408372148 966.9964763508393 -1300.7015298448657 0 0 0
4665 311 15 0 -1037.676296338866 1036.668987688624 -1293.7466548163868 0 0 0
5638 376 13 -0.5 -996.1785708633645 1029.3241397253341 -1276.8011354928196 0 0 0
4232 283 2 0 -1898.6722046955954 1092.069533708597 -1297.4410777852402 0 0 0
4234 283 4 0 -1847.6954236083366 1067.8598096664607 -1316.9104743702185 0 0 0
4484 299 14 -1.5 -1796.0092005744502 1100.812241562169 -1343.598225447985 0 0 0
4652 311 2 0 -1001.2857375256875 1082.7658880921801 -1309.2100547197506 0 0 0
5628 376 3 -1.5 -963.4643897654122 1051.4527030193049 -1292.814270685059 0 0 0
5637 376 12 0 -938.3525898302015 1091.3603987900901 -1275.72248391319 0 0 0
4654 311 4 0 -946.8026758224005 1115.8089231034012 -1332.5490044155463 0 0 0
4178 279 8 0 -848.6853669208142 1254.0691238147535 -1322.0798887280582 0 0 0
4175 279 5 0 -780.2926550752603 1206.1480239380137 -1297.9303156977387 0 0 0
4171 279 1 0 -866.6629868752239 1318.1806752366917 -1322.8698688950406 0 0 0
4238 283 8 0 -2219.433644700057 1402.1876232491531 -1306.6733300436517 0 0 0
2409 161 9 0 -2182.760355999644 1454.192912151206 -1327.315061065212 0 -1 0
2415 161 15 0 -2179.4001662628193 -1470.098260484766 -1260.422902255389 0 0 0
4351 291 1 0 -2145.695342048894 -1479.6720798077295 -1200.5226139454687 0 1 0
2402 161 2 0 -2208.683281563281 -1398.762997945524 -1223.0718916437884 0 0 0
3770 252 5 0 -1921.612327184376 -990.5768693380668 -1245.9871150359963 0 0 0
2656 178 1 0 -235.0788622078846 -649.0280180173437 -1237.6677716811478 0 0 0
1805 121 5 0 -2646.271046831643 -481.74767242813914 -1270.849774303416 0 0 0
916 62 1 0 -984.0899582907002 -508.7156686211062 -1213.9297989818062 0 0 0
2934 196 9 0 -2362.7798190142744 -239.44695471619164 -1270.1342372615434 0 0 0
2940 196 15 0 -2294.1178755919263 -250.3215849279119 -1268.3444037139689 0 0 0
2927 196 2 0 -2232.7882389982374 -227.7311704906371 -1271.1792298766295 0 0 0
2929 196 4 0 -2175.137853515845 -236.72257567173511 -1263.2336718497172 0 0 0
2931 196 6 -0.5 -2330.184723844575 -210.62599008446728 -1235.93307928104 0 0 0
2939 196 14 -1.5 -2288.7700407881853 -201.51008737736097 -1223.489467554681 0 0 0
656 44 11 1 -243.20842689419862 -107.90825471227639 -1241.8129520170887 0 0 0
5057 338 2 0 -617.0116030704572 -32.343616826651385 -1244.1679346742674 0 0 0
1723 115 13 -0.5 -461.9829477150703 412.2131547993842 -1223.1843062437536 0 0 0
1722 115 12 0 -378.94828715303356 377.74470764087124 -1210.0694159220495 0 0 0
1713 115 3 -1.5 -431.58744272646607 383.6180163767912 -1212.0182011035092 0 0 0
1056 71 6 -0.5 -266.5606004282315 544.9656101884349 -1261.007003384615 0 0 0
1064 71 14 -1.5 -246.04174138950341 542.1870801367921 -1221.738979248295 0 0 0
4935 329 15 0 -1878.9725108009577 630.5674994523589 -1261.5928429057678 0 0 0
4934 329 14 -1.5 -1933.119805719966 689.7597973887389 -1261.120229280459 0 0 0
1419 95 9 0 -1472.7083761699266 705.4201590868884 -1240.397280720482 0 0 0
1416 95 6 -0.5 -1425.4226201490424 713.131305322855 -1215.7778917475282 0 0 0
1425 95 15 0 -1452.9024793655813 751.602640941742 -1239.606921208148 0 0 0
1412 95 2 0 -1453.1182588547554 821.5043289983129 -1252.9118225009277 0 0 0
1414 95 4 0 -1449.2867970452342 878.75903867357 -1240.4707622026121 0 0 0
4655 311 5 0 -1347.0486230007964 920.2300354164613 -1210.0140161759755 0 0 0
4660 311 10 1 -1212.8805661113822 922.151761381682 -1262.34775878541 0 0 0
4657 311 7 2 -1157.673561803016 949.7442838616707 -1257.7786107739971 0 0 0
4661 311 11 1 -1109.822862176032 972.670263766597 -1264.9435374124398 0 0 0
4352 291 2 0 -1962.785370121978 1001.4697808574774 -1238.8373682407369 0 0 0
4354 291 4 0 -1913.97200130401 975.8769039880626 -1216.596285366424 0 0 0
4659 311 9 0 -1055.841612002564 1011.7024214033686 -1272.1820195917562 0 0 0
4090 273 10 1 -1011.6323589872477 998.0779059608869 -1271.363052110733 0 0 0
4656 311 6 -0.5 -1009.9465656742983 1034.0692381763477 -1260.6427456821446 0 0 0
4087 273 7 2 -968.1606200819632 1034.6111045864336 -1249.0436310485475 0 0 0
4365 291 15 0 -2015.4229079764705 1059.162336948965 -1244.2175592773372 0 0 0
4356 291 6 -0.5 -1977.436666559808 1117.5648683513518 -1255.1707053103405 0 0 0
4244 283 14 -1.5 -1983.800869846105 1086.660580466069 -1221.9990383171773 0 0 0
4364 291 14 -1.5 -1933.4482808547532 1119.4191886160513 -1256.9354112588815 0 0 0
5633 376 8 0 -1079.6400100639498 1124.1776867095823 -1205.5690778347464 0 0 0
4664 311 14 -1.5 -979.9492178508325 1067.0347608860354 -1262.894299230336 0 0 0
5630 376 5 0 -993.3718946779044 1121.1154047964192 -1235.2484934447946 0 0 0
4091 273 11 1 -926.2835980505797 1065.8762595846413 -1236.3734874805764 0 0 0
4089 273 9 0 -876.5989658040357 1103.8882867519717 -1210.132904955175 0 0 0
4903 327 13 -0.5 -842.5441086244887 1112.4891417535061 -1252.0400269980005 0 0 0
5635 376 10 1 -886.2426057121365 1119.752582382557 -1256.525564035458 0 0 0
4893 327 3 -1.5 -802.1619648366283 1104.1380159979708 -1240.9576880676677 0 0 0
4082 273 2 0 -716.8524089470762 1098.3686135037387 -1200.8703126257371 0 0 0
4361 291 11 1 -2066.287181683144 1173.8342323170152 -1208.813659807902 0 0 0
4359 291 9 0 -2021.6858911626407 1137.291766364703 -1240.0124534768177 0 0 0
4239 283 9 0 -2018.065070164335 1176.2217695592303 -1211.1783148236473 0 0 0
4245 283 15 0 -1950.2446803306111 1160.2772837655343 -1242.139693717124 0 0 0
4236 283 6 -0.5 -1991.5245943705772 1128.6139548576252 -1208.250922392663 0 0 0
5632 376 7 2 -835.7270518243222 1148.322003210167 -1235.0017858540255 0 0 0
4086 273 6 -0.5 -836.67201665485 1139.988581454875 -1202.5769456415437 0 0 0
4902 327 12 0 -773.3515186365844 1129.2494160682184 -1208.455729967786 0 0 0
4173 279 3 -1.5 -801.6544708202179 1150.726040348414 -1236.2227051982613 0 0 0
4094 273 14 -1.5 -802.643139660322 1163.8531002883728 -1216.9003379363483 0 0 0
5636 376 11 1 -791.5870074555709 1175.422660048751 -1220.309900685462 0 0 0
4182 279 12 0 -753.1765806369768 1155.801638659274 -1248.4912167021864 0 0 0
4180 279 10 1 -697.8631027014629 1178.8903759011628 -1225.7975400398323 0 0 0
4177 279 7 2 -641.7395716291298 1189.2828296392925 -1204.5332872676381 0 0 0
4241 283 11 1 -2065.728400379584 1223.5908065513067 -1204.9256265770682 0 0 0
4261 285 1 0 -739.0138270600697 1209.3326208601804 -1245.2106879352716 0 0 0
4268 285 8 0 -675.973079368106 1222.169631948142 -1245.408313137986 0 0 0
4265 285 5 0 -607.5259735043753 1244.7647915166633 -1204.0556415718838 0 0 0
4235 283 5 0 -2220.1841500381483 1370.0512027102463 -1210.921493324018 0 0 0
3629 242 14 -1.5 -16.410213321438654 1396.9157969273228 -1246.9918973429074 0 -1 0
3621 242 6 -0.5 -28.912161524834055 1417.7181923997264 -1210.0888647127445 0 -1 0
2414 161 14 -1.5 -2199.7531207371712 1479.5292360382118 -1239.2796104600166 0 -1 0
2406 161 6 -0.5 -2186.7857113106215 1456.3394118439949 -1274.4353320720118 0 -1 0
3625 242 10 1 -194.05774967943526 -1425.9169866425573 -1173.1400521871135 0 0 0
3622 242 7 2 -148.6493667656377 -1467.2666740707257 -1166.51348749542 0 0 0
2404 161 4 0 -2213.534408232806 -1360.9360298143786 -1181.1276045842746 0 0 0
3627 242 12 0 -240.61251755192833 -1382.6861299302277 -1178.0537643738119 0 0 0
3628 242 13 -0.5 -292.7311628246492 -1318.05326887488 -1177.6963890063632 0 0 0
3618 242 3 -1.5 -260.41886469301625 -1340.6125325906473 -1161.3683609898806 0 0 0
3773 252 8 0 -1860.6393037879348 -977.2477380830459 -1190.7265608644702 0 0 0
3766 252 1 0 -1815.3355943945996 -969.8970548137867 -1187.1451636913694 0 0 0
2668 178 13 -0.5 -328.7199318758713 -875.8782139191144 -1142.789644575038 0 0 0
2664 178 9 0 -19.865297146748123 -898.1920971424597 -1136.9197413905263 0 0 0
2660 178 5 0 -259.27599127530436 -770.6818389421812 -1176.0699149368716 0 0 0
2663 178 8 0 -236.71749042579322 -687.4585370028202 -1189.5103444311178 0 0 0
1618 108 13 -0.5 -1513.7579211376933 -622.0017070098091 -1195.0636145556748 0 0 0
1608 108 3 -1.5 -1475.6346169888927 -618.3185214397682 -1176.1086918342246 0 0 0
1617 108 12 0 -1438.7981260118809 -587.6773199353004 -1183.139657913158 0 0 0
1615 108 10 1 -1375.9010247669237 -577.4908111847128 -1177.8915483344792 0 0 0
1612 108 7 2 -1322.4549011616525 -550.2225657652831 -1161.2282550812104 0 0 0
253 17 13 -0.5 -1310.1188819674448 -526.6374117981694 -1131.0054105962788 0 0 0
243 17 3 -1.5 -1276.8559882150234 -537.1382837734939 -1156.4740032582122 0 0 0
1616 108 11 1 -1273.451117831138 -530.3146893677518 -1150.6192193244171 0 0 0
1609 108 4 0 -1051.51284335414 -552.6011708827099 -1161.0179920633393 0 0 0
1607 108 2 0 -1111.205787633673 -555.4047649429439 -1135.1227884433317 0 0 0
923 62 8 0 -937.1647393243974 -526.573909709776 -1173.5693290885886 0 0 0
1808 121 8 0 -2701.598404717156 -482.0494969176239 -1197.6296898543442 0 0 0
1801 121 1 0 -2753.4995262397783 -494.6390942747493 -1153.8720963297296 0 0 0
1606 108 1 0 -1616.197692136241 -463.08481935869514 -1152.3383776369144 0 0 0
1613 108 8 0 -1544.3682370511463 -480.10295372832616 -1132.4806660417876 0 0 0
1610 108 5 0 -1477.1594178823377 -505.9770276528528 -1141.9732375238275 0 0 0
252 17 12 0 -1230.6138873547982 -518.0543558388893 -1171.703923041925 0 0 0
250 17 10 1 -1172.4194224731093 -500.2367069806296 -1157.5668547431353 0 0 0
247 17 7 2 -1116.9404988707574 -486.62963570656603 -1135.6253755623093 0 0 0
3128 209 8 0 -1209.8100765552522 -176.59675644202497 -1144.7840223831436 0 0 0
3121 209 1 0 -1168.1662053832422 -168.5885473026971 -1198.6310984037862 0 0 0
5064 338 9 0 -718.5043469559477 -76.4171039605541 -1154.1768904497137 0 0 0
5061 338 6 -0.5 -680.1049546705162 -113.79322363889541 -1170.365225215811 0 0 0
5069 338 14 -1.5 -642.4050641343835 -135.96661001609 -1162.1192923186475 0 0 0
651 44 6 -0.5 -241.73118168826863 -136.3957880394913 -1125.0722106228654 0 0 0
654 44 9 0 -241.22510085819485 -134.3664222201714 -1178.8695215651912 0 0 0
660 44 15 0 -164.6623932687764 -122.55399657441755 -1140.9676312378106 0 0 0
5066 338 11 1 -777.9925555146561 -52.802953975814816 -1141.3636489151525 0 0 0
5070 338 15 0 -671.3314651208073 -42.30358040887399 -1193.6641869287162 0 0 0
1291 87 1 0 -1113.1486173428366 310.4295173457914 -1158.769190688221 0 0 0
1720 115 10 1 -320.91640548433696 385.27559542997153 -1184.1791251302097 0 0 0
1717 115 7 2 -263.9970913531016 399.2712210169959 -1165.6482138297022 0 0 0
1721 115 11 1 -217.59069168432254 416.25157672718234 -1144.6147170666895 0 0 0
1725 115 15 0 -99.5707976302994 435.96412500034296 -1135.2900258736688 0 0 0
1712 115 2 0 -38.82826730490545 410.5728347587501 -1158.2589393565147 0 0 0
4924 329 4 0 -1809.5228573317484 580.9008514981464 -1157.6848912558862 0 0 0
4922 329 2 0 -1834.0887601442332 613.9836568338947 -1196.8209598107424 0 0 0
1424 95 14 -1.5 -1396.0025169851785 739.3069298715765 -1195.2114248448486 0 0 0
4683 313 3 -1.5 -2937.6929944624694 852.1130146945184 -1135.3903137924715 0 0 0
4693 313 13 -0.5 -2937.859576503745 878.4710121651937 -1169.0813658769566 0 0 0
4658 311 8 0 -1382.3578741041688 972.8648849059509 -1179.9031891166164 0 0 0
4651 311 1 0 -1407.9079571030056 1028.5655571684104 -1173.28164009983 0 0 0
5626 376 1 0 -1129.1438375636565 1114.2840823141637 -1153.0081569669353 0 0 0
4095 273 15 0 -811.4617512169248 1095.5124089063568 -1192.1452730897074 0 0 0
4895 327 5 0 -850.0084817807403 1158.7190034554283 -1138.7771441386758 0 0 0
4183 279 13 -0.5 -823.5463272986201 1150.0190883119355 -1198.7538259689957 0 0 0
5634 376 9 0 -733.4848425150308 1194.691742951118 -1195.6621003335774 0 0 0
4900 327 10 1 -716.4494970284846 1152.3223739775037 -1185.4198635417397 0 0 0
5383 359 13 -0.5 -678.5245489054976 1195.8614025977806 -1181.6504370253977 0 0 0
4084 273 4 0 -674.6507603535929 1135.0281173357835 -1185.5154401398693 0 0 0
4897 327 7 2 -663.1209191790232 1169.0372879522347 -1159.3952472177198 0 0 0
4273 285 13 -0.5 -644.8993627203896 1196.6377692801411 -1134.1684307202647 0 0 0
4901 327 11 1 -618.3622112099622 1185.186911457044 -1133.9549810044634 0 0 0
5373 359 3 -1.5 -641.5763353265102 1198.256206227989 -1160.4089022953028 0 0 0
4181 279 11 1 -593.561968896511 1193.8177818283452 -1179.0993463342347 0 0 0
5374 359 4 0 -265.4847543061869 1170.4607069077076 -1143.870449721751 0 0 0
4360 291 10 1 -2127.6158741620466 1249.2898432890258 -1147.1557393266687 0 0 0
4237 283 7 2 -2106.7595125948956 1257.2498103389917 -1192.9295419534765 0 0 0
4357 291 7 2 -2095.2254903141834 1206.7250476569975 -1177.1708960595859 0 0 0
5631 376 6 -0.5 -685.49832939027 1211.1539445608244 -1186.8299322550574 0 0 0
5640 376 15 0 -717.7397599584817 1217.2110312737673 -1137.4600391184342 0 0 0
5639 376 14 -1.5 -646.4519182117868 1204.3595379503508 -1167.6740082308963 0 0 0
5382 359 12 0 -607.8170926352074 1230.6546283754183 -1142.8502763112913 0 0 0
4179 279 9 0 -541.3742914368022 1201.3488697205996 -1140.9738133939923 0 0 0
5385 359 15 0 -329.4381387314955 1257.8314132973549 -1140.1236474499265 0 0 0
5372 359 2 0 -293.26014714674903 1221.9264651665048 -1137.0080590312264 0 0 0
4242 283 12 0 -2190.025667832227 1347.656246678506 -1156.2170276353681 0 0 0
4240 283 10 1 -2150.693022074749 1297.8530168522504 -1177.3653330712434 0 0 0
4362 291 12 0 -2158.115220797653 1299.8687415373113 -1127.5347727420424 0 0 0
5359 358 4 0 -2972.434413260732 1381.1737475700947 -1149.8408958318166 1 0 0
4233 283 3 -1.5 -2190.891553953866 1391.1526105513728 -1131.5471233859578 0 0 0
4355 291 5 0 -2116.22680212122 1393.6168823188646 -1163.0419517818707 0 0 0
3630 242 15 0 -26.760434615008435 1417.737005841026 -1146.1134361635845 0 -1 0
4358 291 8 0 -2108.316783703812 1481.23594187257 -1164.587352988892 0 0 0
3626 242 11 1 -110.83958194130616 1492.7576726202794 -1170.1209263589878 0 -1 0
3624 242 9 0 -57.59901923164218 1459.2547437442802 -1184.0893478861326 0 -1 0
3751 251 1 0 -479.9279704085507 -903.9524312244081 -1114.9109583281736 0 0 0
3758 251 8 0 -489.8549571127597 -900.9480113638132 -1057.1272293748202 0 0 0
2658 178 3 -1.5 -305.84726086156377 -848.1024512013643 -1118.9340704299916 0 0 0
2667 178 12 0 -257.55377152035703 -838.5836618702796 -1122.9813010733515 0 0 0
2665 178 10 1 -192.15905186191154 -854.0677081240405 -1113.146945407307 0 0 0
2662 178 7 2 -132.13989782266333 -869.343229606324 -1116.3842802381312 0 0 0
2666 178 11 1 -79.13392833699083 -875.9618211412167 -1122.7056031735908 0 0 0
5533 369 13 -0.5 -2640.523102361756 -589.2615178824065 -1096.512747674945 0 0 0
5523 369 3 -1.5 -2657.4796594056675 -587.1351004895462 -1057.1527649788302 0 0 0
1620 108 15 0 -1169.5828749645605 -533.0463653413484 -1108.7379018200595 0 0 0
1614 108 9 0 -1223.066689020678 -495.6395450311731 -1124.3114125790657 0 0 0
1611 108 6 -0.5 -1173.7627729332264 -483.28678145163695 -1104.3665261501753 0 0 0
1619 108 14 -1.5 -1130.5030591861023 -492.19681677958874 -1098.9616558436405 0 0 0
251 17 11 1 -1066.777634027608 -483.4491132012728 -1118.0165254409312 0 0 0
249 17 9 0 -1007.6114203286262 -499.0190396355182 -1099.1155402810064 0 0 0
254 17 14 -1.5 -924.3672192575654 -518.5280674045855 -1057.226195560819 0 0 0
246 17 6 -0.5 -967.2905472242401 -516.4654114448248 -1066.3807825185347 0 0 0
255 17 15 0 -974.080614293497 -456.81297673859024 -1061.387393996009 0 0 0
920 62 5 0 -899.3533828061685 -522.5701949611689 -1102.5666398912522 0 0 0
5443 363 13 -0.5 -481.4488140160753 -275.075095946451 -1074.373733604194 0 0 0
3125 209 5 0 -1212.219160882776 -103.56617635930527 -1106.3817117555486 0 0 0
659 44 14 -1.5 -234.92216797563336 -117.8595253768986 -1085.9840878566993 0 0 0
647 44 2 0 -104.95970399470423 -95.789908508198 -1107.7322407120264 0 0 0
649 44 4 0 -63.536043648028254 -93.14015415747237 -1079.932760392492 0 0 0
3130 209 10 1 -1098.1261800379934 -43.39665859573335 -1063.489639303749 0 0 0
3131 209 11 1 -985.2817165473095 -43.82182602262978 -1088.1367573900586 0 0 0
3127 209 7 2 -1038.8789572323763 -43.34329409670676 -1077.9929167338373 0 0 0
5068 338 13 -0.5 -1010.2727864348091 -16.978428984538862 -1067.414116420721 0 0 0
3129 209 9 0 -920.4159412217288 -36.10757132377043 -1096.3375300718972 0 0 0
5065 338 10 1 -875.7253913905747 -16.169790620586216 -1092.8901480207323 0 0 0
3126 209 6 -0.5 -876.4589742914691 -13.610243225674044 -1113.9487943631977 0 0 0
5062 338 7 2 -822.8688933306078 -34.13091523035817 -1119.2096232179545 0 0 0
5058 338 3 -1.5 -977.7792490437477 10.984315234152461 -1064.5402329129145 0 0 0
5067 338 12 0 -930.0853730376181 4.304092770239622 -1068.1178628234575 0 0 0
3134 209 14 -1.5 -835.665085818419 1.0952316197437189 -1105.074603858389 0 0 0
1003 67 13 -0.5 -1097.5363132455172 284.46083333622914 -1086.7439998244035 0 0 0
1298 87 8 0 -1077.7693171565422 322.02142137674315 -1122.1539436035655 0 0 0
993 67 3 -1.5 -1072.6690646603638 312.78517719026416 -1066.93546293397 0 0 0
1295 87 5 0 -1086.092777480362 357.66898118121776 -1050.927645351462 0 0 0
1719 115 9 0 -162.07390090619126 447.49599222668627 -1124.8176855795361 0 0 0
5168 345 8 0 -2020.9570562532283 509.6150429935115 -1102.487331938388 0 0 0
5161 345 1 0 -1982.1414546837646 493.13317890656265 -1106.9725484343433 0 0 0
1716 115 6 -0.5 -125.08742831915698 489.2042157806462 -1115.2217524834214 0 0 0
1724 115 14 -1.5 -110.23144283041606 530.0995503927275 -1123.9599663623053 0 0 0
4688 313 8 0 -2951.3349751566984 648.1690385953758 -1118.4214966474487 0 0 0
5163 345 3 -1.5 -2149.035823565958 624.5039266451013 -1057.2160842791154 0 0 0
5173 345 13 -0.5 -2159.4592672215044 652.1471784406851 -1087.157680072665 0 0 0
4685 313 5 0 -2938.955585992148 733.3660971004653 -1097.6107124408006 0 0 0
3523 235 13 -0.5 -1451.4903757461664 786.5312049942141 -1055.9706348549007 0 0 0
4690 313 10 1 -2853.7499585344253 829.2144682778996 -1080.4803452094443 0 0 0
4692 313 12 0 -2902.702553184989 825.2173843858602 -1110.8218791986174 0 0 0
4066 272 1 0 -2728.206894464476 957.6318263676385 -1124.7767088497635 0 0 0
4073 272 8 0 -2713.0422189204296 908.8769133703535 -1098.3988328282876 0 0 0
4069 272 4 0 -2387.405167294285 900.7184862037773 -1123.2903064760146 0 0 0
4067 272 2 0 -2365.3880700175505 925.8855027444399 -1083.0668479846279 0 0 0
4172 279 2 0 -502.59300025341764 1118.9098624878648 -1084.6541198762127 0 0 0
4174 279 4 0 -465.51595256769104 1072.3445535212577 -1067.694441616385 0 0 0
4898 327 8 0 -881.2793029498728 1145.073504782622 -1074.6968789955204 0 0 0
4185 279 15 0 -520.6099902166262 1159.2641691046379 -1105.3341543998088 0 0 0
5627 376 2 0 -713.2998848851063 1252.6824694442396 -1068.191258511137 0 0 0
5375 359 5 0 -652.2102866230547 1225.638756939503 -1068.5397123682312 0 0 0
4263 285 3 -1.5 -622.2219073859161 1214.976947764703 -1103.3199572064477 0 0 0
5380 359 10 1 -548.4501378510743 1242.4032088129525 -1123.1499022473954 0 0 0
4272 285 12 0 -592.0652649842405 1254.2730108765656 -1098.7901788306403 0 0 0
4899 327 9 0 -575.3986739355555 1209.393052079675 -1086.731180659263 0 0 0
4896 327 6 -0.5 -532.8252232149639 1233.3350578872185 -1068.4573341509968 0 0 0
4270 285 10 1 -531.0158870685411 1272.1384456693784 -1086.0771370986454 0 0 0
4176 279 6 -0.5 -505.8917972715103 1215.07522501224 -1099.5519699682557 0 0 0
5377 359 7 2 -491.06882567955756 1262.5422120817836 -1113.9606257305156 0 0 0
4184 279 14 -1.5 -476.9948861649888 1243.5441771042008 -1080.4295898520859 0 0 0