LAMMPS data file via write_data, version 27 Jun 2024, timestep = 30400000, units = real

5730 atoms
15 atom types
5677 bonds
16 bond types
5730 angles
15 angle types

-3000 3000 xlo xhi
-1500 1500 ylo yhi
-1500 1500 zlo zhi

Masses

1 241.19
2 73.54000000000001
3 330.71
4 235.16
5 68.06999999999999
6 353.53
7 223.38
8 41.1
9 216.91
10 155.15
11 147.32
12 264.65
13 300.8
14 326.05
15 85.20999999999999

Pair Coeffs # lj/cut/coul/debye/gpu

1 0.71637 40.7505
2 0.665709 48.1397
3 1.15033 39.2216
4 0.726774 43.8077
5 0.514724 53.3428
6 1.17127 41.7847
7 1.2256 38.5601
8 0.675431 54.5696
9 1.26117 43.78
10 0.939007 42.5209
11 0.960667 41.1825
12 1.30988 48.0761
13 1.36645 37.7114
14 1.35529 39.2179
15 0.592003 47.2602

Bond Coeffs # harmonic

1 0.003 59.228
2 0.008 56.48
3 0.001 69.324
4 3.207 42.88
5 0.11 49.807
6 0.002 74.968
7 0.001 91.635
8 0.145 54.383
9 2.709 44.406
10 1.71 61.679
11 1.625 54.051
12 0.207 66.185
13 0.002 64.76
14 0.079 63.886
15 0.2 40
16 0.2 40

Angle Coeffs # harmonic

1 11.427 158.273
2 50.464 132.042
3 8.207 156.514
4 92.705 149.394
5 100 174.44
6 3.15 145.53
7 48.938 159.031
8 17.401 129.945
9 15.735 56.441
10 60 172.254
11 60.285 168.396
12 11.83 99.091
13 150 107.995
14 27.746 149.925
15 7.483 160.775

Atoms # full

3766 252 1 0 -1938.4377851104866 -1314.2743818782676 -1461.0523853347327 0 0 0
2556 171 6 -0.5 -1027.3077413118795 -1277.3492784208747 -1430.7475918664322 0 0 1
3774 252 9 0 -1608.8083905750273 -1271.5489739384864 -1443.586721117484 0 0 0
3771 252 6 -0.5 -1575.3699878685659 -1243.8571322298878 -1475.8340603635042 0 0 0
3780 252 15 0 -1548.7502766738235 -1241.9222524523552 -1431.6635137770993 0 0 0
3767 252 2 0 -1467.0630858888953 -1227.609090423409 -1445.1702459564933 0 0 0
3769 252 4 0 -1421.9283126364558 -1247.285212690959 -1461.089343203189 0 0 0
2564 171 14 -1.5 -990.5906561646615 -1273.3868251202111 -1454.7227975650085 0 0 1
1094 73 14 -1.5 -2449.2468805164563 -1073.0088972655367 -1451.6374430448286 0 0 1
1086 73 6 -0.5 -2434.4565618795796 -1053.685002711473 -1489.3121468308605 0 0 1
2555 171 5 0 -1285.429445458899 -1105.492238362658 -1457.625398221523 0 0 1
1095 73 15 0 -2406.2118062236777 -1023.4138856881173 -1446.3409922849305 0 0 1
1814 121 14 -1.5 -2824.062423593671 -583.7669333017172 -1433.9548261642756 0 0 0
2584 173 4 0 -1579.502519480349 -442.2032131665948 -1447.6666421704872 0 0 1
2582 173 2 0 -1614.2547294946557 -388.38097771129804 -1453.8661643773212 0 0 1
965 65 5 0 -2693.3486673773705 -343.33596501110554 -1452.485546439132 0 0 0
2595 173 15 0 -1615.7423939614607 -325.2792910759886 -1454.9922510061613 0 0 1
2586 173 6 -0.5 -1630.5756804483792 -260.6799777215171 -1445.2727516800985 0 0 1
2589 173 9 0 -1605.2188102379782 -255.38066997364461 -1494.1886755569292 0 0 1
1053 71 3 -1.5 -753.6415753896808 112.33269293972273 -1439.2798915162664 0 0 0
1062 71 12 0 -715.2546948606335 134.7559517389761 -1450.2556216035712 0 0 0
1060 71 10 1 -676.2933978434822 182.86804115953728 -1440.3523554040403 0 0 0
1723 115 13 -0.5 -608.5666742704922 239.67045245787136 -1446.7135826335252 0 0 0
1057 71 7 2 -644.810845296851 235.2615466421161 -1430.4609454186134 0 0 0
1411 95 1 0 -1406.7745917568925 432.8549315441214 -1439.445569893614 0 0 0
4931 329 11 1 -1793.8692627826783 518.8129943440233 -1476.3026861610538 0 0 0
4364 291 14 -1.5 -2054.652057613822 1090.1907022418661 -1468.47304537803 0 0 0
4477 299 7 2 -2044.53095094859 1112.31497580373 -1436.8000550651602 0 0 0
4356 291 6 -0.5 -2070.689597966388 1104.1861856506869 -1429.2945827519484 0 0 0
4480 299 10 1 -2077.9518319662307 1120.5321572977346 -1487.853185864162 0 0 0
4244 283 14 -1.5 -2004.2596757084946 1119.3736632587315 -1432.298415177496 0 0 0
4234 283 4 0 -1894.276820377318 1066.4202996273825 -1448.6782566508348 0 0 0
4232 283 2 0 -1937.6789641349365 1112.7384699253448 -1427.1725526567984 0 0 0
4365 291 15 0 -2120.2939269851636 1149.2533613935711 -1454.4198646991379 0 0 0
2554 171 4 0 -1040.888190239253 -1454.4479957683006 -1398.4123642307063 0 0 1
3773 252 8 0 -1899.8268484669386 -1352.9086302129867 -1415.4000872099277 0 0 0
2552 171 2 0 -1041.2303169391257 -1395.0371454216495 -1395.5091591098947 0 0 1
3770 252 5 0 -1859.886751295032 -1315.605713207793 -1355.6176836934594 0 0 0
3772 252 7 2 -1707.9363233079202 -1277.4440181094633 -1376.9325741341254 0 0 0
3776 252 11 1 -1660.3233657739047 -1282.0164207589173 -1402.507616557428 0 0 0
2565 171 15 0 -1065.4743606205518 -1307.5279573683936 -1413.8988672285998 0 0 1
2561 171 11 1 -1126.6317109104828 -1222.4754029191233 -1392.7537724951017 0 0 1
2559 171 9 0 -1071.4730661625854 -1255.2869430660712 -1406.9389947420616 0 0 1
2560 171 10 1 -1215.9358711468428 -1148.9346929590245 -1385.6721854940954 0 0 1
2557 171 7 2 -1167.8429675759726 -1188.0978561525292 -1385.1222274433528 0 0 1
2563 171 13 -0.5 -1342.0917034513318 -1061.6953122464163 -1385.9843011883856 0 0 1
2553 171 3 -1.5 -1300.8491555642186 -1072.19815888594 -1382.670426963281 0 0 1
2562 171 12 0 -1273.3833593988531 -1107.797983137363 -1396.251097999508 0 0 1
1082 73 2 0 -2439.7330778554524 -1001.7940649847388 -1370.099499811352 0 0 1
1804 121 4 0 -2702.9990373244914 -701.0761660433304 -1410.251064662214 0 0 0
1802 121 2 0 -2714.4534296043958 -648.4278309008888 -1403.17168550294 0 0 0
1815 121 15 0 -2749.7186863873935 -600.7510457955945 -1406.0690787808944 0 0 0
1806 121 6 -0.5 -2804.801999244491 -554.3803578564286 -1408.3212789774525 0 0 0
5521 369 1 0 -2671.919335059837 -562.9873207721724 -1421.0651315105727 0 0 0
1809 121 9 0 -2769.287959962378 -518.7768337407564 -1388.2745259499372 0 0 0
1811 121 11 1 -2725.387893658193 -467.47046509120173 -1392.7040903303584 0 0 0
5528 369 8 0 -2660.9620934465725 -501.75687964274937 -1413.4120396649437 0 0 0
5525 369 5 0 -2652.5726128010856 -477.0107833062355 -1355.8830117206392 0 0 0
5533 369 13 -0.5 -2711.2336148153263 -389.896255609752 -1364.3465614871318 0 0 0
1807 121 7 2 -2698.8298058763967 -420.93552905176267 -1386.1117970887872 0 0 0
963 65 3 -1.5 -2665.0844125632566 -432.88733472160555 -1376.5517865311374 0 0 0
972 65 12 0 -2633.3590921127543 -395.9324568775185 -1392.5507718690144 0 0 0
916 62 1 0 -831.3680319037294 -434.4952618555211 -1373.4789993717895 0 0 0
1810 121 10 1 -2673.943828723893 -365.59875298770714 -1373.1743449316714 0 0 0
1812 121 12 0 -2635.361961587991 -315.4819357391729 -1357.5676089991387 0 0 0
970 65 10 1 -2585.0002323155827 -359.79018747455416 -1369.357432309304 0 0 0
2938 196 13 -0.5 -2573.528322744348 -301.04176931188016 -1362.625463861502 0 0 0
1803 121 3 -1.5 -2593.240042354243 -288.2162103958678 -1365.8033456752958 0 0 0
2928 196 3 -1.5 -2542.0083751621078 -272.47638989414634 -1365.0745768418615 0 0 0
2594 173 14 -1.5 -1632.820254146158 -253.71593277721541 -1401.6659691569018 0 0 1
1801 121 1 0 -2801.409838945138 -161.56619570934873 -1385.7359369186543 0 0 0
1808 121 8 0 -2729.781086439464 -179.33476020317994 -1374.530327765392 0 0 0
1063 71 13 -0.5 -762.4455496726076 81.5253268991957 -1410.637623509806 0 0 0
1061 71 11 1 -620.4861322246988 282.1670682333672 -1422.6043532503666 0 0 0
1713 115 3 -1.5 -616.6439416525616 245.70137749787312 -1404.7204705655981 0 0 0
1722 115 12 0 -602.4156659324627 285.53579619179334 -1377.3526284605248 0 0 0
1065 71 15 0 -616.9462097020698 374.472685740479 -1362.0777636117175 0 0 0
1059 71 9 0 -599.1976786162148 342.6709511910083 -1405.2148820857128 0 0 0
1720 115 10 1 -562.8562003337171 333.4156663146318 -1361.040907136694 0 0 0
1423 95 13 -0.5 -1615.7353625509545 421.46584531546335 -1418.7342225961813 0 0 0
1413 95 3 -1.5 -1596.8801907821655 438.9879413126144 -1384.5029128339502 0 0 0
1056 71 6 -0.5 -566.7424294383597 382.325177228177 -1388.0709283991491 0 0 0
1064 71 14 -1.5 -530.5790704904085 396.2412749807705 -1366.3760829286364 0 0 0
4929 329 9 0 -1801.9508300506209 519.0184113493648 -1410.7125900321291 0 0 0
1422 95 12 0 -1598.492745096037 486.55072098917555 -1364.8991279310958 0 0 0
1415 95 5 0 -1491.6802021580877 504.2897086902369 -1357.0587374489787 0 0 0
1418 95 8 0 -1415.9393549982747 479.0730438439317 -1392.4720440846525 0 0 0
4926 329 6 -0.5 -1817.2986169015035 537.1446790663716 -1357.964045186522 0 0 0
4935 329 15 0 -1771.4532164507805 558.5315894059272 -1353.78279250397 0 0 0
4474 299 4 0 -1836.7920542083643 992.3220949657148 -1362.8501407847511 0 0 0
4236 283 6 -0.5 -2022.119612308858 1110.745208518447 -1392.6661048252574 0 0 0
4481 299 11 1 -2019.4947097582817 1105.1023253101796 -1389.6901423139225 0 0 0
4359 291 9 0 -2064.841851918158 1127.9121492303984 -1383.0287259288955 0 0 0
4245 283 15 0 -1982.5975099575016 1140.6745662623503 -1377.2344884239747 0 0 0
4264 285 4 0 -309.77854383876075 1206.0245697948706 -1355.279518452803 0 0 0
2403 161 3 -1.5 -2184.308324606026 1420.8690643602597 -1381.6984917271657 0 -1 0
2413 161 13 -0.5 -2181.27961846647 1443.9763303634154 -1417.5194018750676 0 -1 0
3775 252 10 1 -1761.982238680167 -1275.7627668725181 -1347.7383432172996 0 0 0
3777 252 12 0 -1828.343023384898 -1266.4038804905676 -1336.1739884049637 0 0 0
3768 252 3 -1.5 -1867.701428805345 -1242.3829571222561 -1315.3006677062365 0 0 0
3778 252 13 -0.5 -1872.9182895166834 -1199.5936241217623 -1308.9411710903837 0 0 0
1084 73 4 0 -2459.5548170191796 -997.7771774284291 -1304.6902278129637 0 0 1
5523 369 3 -1.5 -2671.7517774830835 -384.08674937894244 -1348.3203370454514 0 0 0
973 65 13 -0.5 -2694.574034815915 -434.15510157817886 -1345.1056490521303 0 0 0
5532 369 12 0 -2646.767215131398 -412.88290106010714 -1317.3971838510633 0 0 0
923 62 8 0 -871.3263528488809 -433.17351449527524 -1306.8063760242246 0 0 0
967 65 7 2 -2544.609339897998 -320.45376244407055 -1344.3377443580405 0 0 0
1805 121 5 0 -2685.031526803134 -249.14003638958746 -1347.0803829109095 0 0 0
1813 121 13 -0.5 -2557.1323395769546 -282.6014193085376 -1343.171105324584 0 0 0
2937 196 12 0 -2536.633908236071 -231.9932509697698 -1339.8871989832685 0 0 0
971 65 11 1 -2514.5185556920073 -281.1104675577708 -1323.660984267434 0 0 0
969 65 9 0 -2486.1607019568373 -230.14108780758968 -1294.6906898396992 0 0 0
2926 196 1 0 -2734.478085730883 -206.5799874159821 -1318.4386322681 0 0 0
2933 196 8 0 -2687.5125447468436 -217.4096595711046 -1298.7202835076043 0 0 0
2930 196 5 0 -2609.4134108005655 -211.1458204495606 -1319.6204430797943 0 0 0
2935 196 10 1 -2496.8956410467745 -192.18923181719316 -1312.970588446302 0 0 0
966 65 6 -0.5 -2445.0429872134937 -195.309894248643 -1277.9799906972794 0 0 0
2932 196 7 2 -2455.2907571950473 -148.7467696431798 -1297.8329088862163 0 0 0
2936 196 11 1 -2420.467750496108 -108.82913064329938 -1288.0517351086287 0 0 0
1715 115 5 0 -634.7992010708299 230.65523702151017 -1289.2781544165225 0 0 0
1717 115 7 2 -517.9752397892208 369.66315833451694 -1338.773549415884 0 0 0
1054 71 4 0 -704.6718781130082 443.7606085710482 -1283.1001876366252 0 0 0
1052 71 2 0 -678.7963431165789 410.16901652781587 -1320.6927660926247 0 0 0
1721 115 11 1 -483.9598397071672 404.1222664162953 -1315.0542859117818 0 0 0
1719 115 9 0 -439.2632485446145 451.3684499791986 -1301.6174098837898 0 0 0
1716 115 6 -0.5 -419.4453705887856 495.762466941315 -1280.8948823997791 0 0 0
4934 329 14 -1.5 -1813.1851692155806 564.9883172595625 -1323.4486809189004 0 0 0
4922 329 2 0 -1739.3914748677303 563.1825736330062 -1298.16667448782 0 0 0
1417 95 7 2 -1674.2995591873657 565.3606041563859 -1307.229786689041 0 0 0
1421 95 11 1 -1708.6267983961 599.8500640342579 -1282.8051029808819 0 0 0
1420 95 10 1 -1632.7446008509903 529.5479716920603 -1335.7989972690796 0 0 0
1725 115 15 0 -425.9539186055595 528.2488335590944 -1332.0700882500655 0 0 0
1724 115 14 -1.5 -400.62056829433305 535.1671345452352 -1288.091385080588 0 0 0
1714 115 4 0 -461.82839596789876 674.5243925891021 -1314.1017320525596 0 0 0
1712 115 2 0 -438.86201039106805 621.9744025836953 -1328.923548301397 0 0 0
4472 299 2 0 -1877.6319164204199 1016.7950515935952 -1342.6832647314068 0 0 0
4239 283 9 0 -2030.3223937233458 1120.9918871527577 -1339.327152726474 0 0 0
4479 299 9 0 -1981.4965674274943 1111.0428444331328 -1334.961789865713 0 0 0
4476 299 6 -0.5 -1967.036062691108 1120.3297808999093 -1282.5414976667394 0 0 0
4485 299 15 0 -1923.1193719897362 1069.8579257460333 -1329.4050185843223 0 0 0
4357 291 7 2 -2102.679248752937 1176.3713269786404 -1279.572880976267 0 0 0
4361 291 11 1 -2079.1312583323856 1157.485758086505 -1323.8800914006274 0 0 0
4241 283 11 1 -2053.4225519565825 1154.489238223704 -1286.9093284538988 0 0 0
4262 285 2 0 -333.1104644529119 1234.8059862585412 -1313.6757660149067 0 0 0
4351 291 1 0 -2292.818139226755 1282.6491263269934 -1282.4426870256839 0 0 0
5384 359 14 -1.5 -334.84074650528487 1317.7629513056115 -1275.378733705841 0 0 0
2405 161 5 0 -2225.3999069007805 1366.5748234561418 -1305.4266754286305 0 -1 0
2410 161 10 1 -2199.3072519764746 1478.8324361404664 -1296.2695902415028 0 -1 0
2412 161 12 0 -2190.3736921776353 1433.4168991827696 -1336.0870292913019 0 -1 0
2411 161 11 1 -2231.425923248992 -1441.6580170508137 -1219.1085372207547 0 0 0
2407 161 7 2 -2217.647600408033 -1476.8978600033013 -1258.502526939749 0 0 0
2402 161 2 0 -2367.614692162479 -1290.4295765797492 -1219.7476722406052 0 0 0
2415 161 15 0 -2313.408313392858 -1340.1675449602387 -1203.7682549171832 0 0 0
2404 161 4 0 -2417.305775047302 -1261.3565736795672 -1213.9187039094638 0 0 0
2656 178 1 0 -215.1993910299511 -703.2262054463415 -1212.1752847826042 0 0 0
5530 369 10 1 -2615.6005440651484 -422.3810049909012 -1257.9775483824787 0 0 0
5527 369 7 2 -2591.89436857928 -419.81517548985556 -1201.0353851262155 0 0 0
920 62 5 0 -878.4935575687364 -426.6032360577887 -1227.3603283860407 0 0 0
646 44 1 0 -215.99673235574204 -237.33406923354588 -1224.194355614897 0 0 0
975 65 15 0 -2512.3068640266843 -173.775821238301 -1254.274318549611 0 0 0
974 65 14 -1.5 -2433.448152051597 -154.43382971466406 -1264.2594504094395 0 0 0
964 65 4 0 -2615.3733064027265 -89.03118043341662 -1261.0041911617047 0 0 0
962 65 2 0 -2579.6247132901876 -125.1259777593626 -1242.2887100973928 0 0 0
2934 196 9 0 -2381.30494713738 -61.92575372536314 -1266.3315758878757 0 0 0
2931 196 6 -0.5 -2341.0216760034314 -42.60988503453094 -1238.7120138098828 0 0 0
2940 196 15 0 -2382.600659990441 -32.3251293099449 -1227.1749905624315 0 0 0
2939 196 14 -1.5 -2326.2600447412538 -6.137182773265924 -1218.44819950412 0 0 0
658 44 13 -0.5 -168.9377094689698 -25.82145292199773 -1243.578032854387 0 0 0
648 44 3 -1.5 -137.5764851472551 -42.94075496773214 -1220.3737392584642 0 0 0
1718 115 8 0 -590.6827233849566 174.09223452619062 -1216.423374237105 0 0 0
4924 329 4 0 -1738.7428302671156 587.3925589820587 -1249.5022168894434 0 0 0
1416 95 6 -0.5 -1786.7287965401663 645.5039563810029 -1215.5821978713768 0 0 0
1419 95 9 0 -1743.975660709587 633.7622199592871 -1242.1223620631533 0 0 0
1412 95 2 0 -1842.9785225128583 739.8045327864717 -1235.642803096714 0 0 0
1425 95 15 0 -1784.439511952779 690.077130942337 -1248.7130340018687 0 0 0
1414 95 4 0 -1901.1562838753948 757.8251598945793 -1238.945787548174 0 0 0
4484 299 14 -1.5 -1937.792507361436 1117.925684604108 -1249.7278043273732 0 0 0
4237 283 7 2 -2070.8049902268194 1189.9825352765629 -1250.0256657707166 0 0 0
4358 291 8 0 -2281.7458805492442 1251.6819114495593 -1249.450917162283 0 0 0
2401 161 1 0 -2226.9827346654542 1273.4751952227052 -1229.1243566703317 0 -1 0
4360 291 10 1 -2127.0663176178223 1202.9792006595737 -1229.7955345463427 0 0 0
4240 283 10 1 -2089.263156641779 1228.6116020382326 -1205.252711678416 0 0 0
4171 279 1 0 -925.0476468526822 1268.7072225587829 -1200.392674256516 0 0 0
4178 279 8 0 -894.9121619920811 1235.961098463548 -1226.978566234483 0 0 0
4185 279 15 0 -520.6733396133591 1263.665723524393 -1226.8136742725428 0 0 0
4172 279 2 0 -444.14555869071796 1255.138688505124 -1221.1395139063432 0 0 0
4275 285 15 0 -342.0711732938573 1257.7986847149905 -1240.9990701562006 0 0 0
4231 283 1 0 -2293.443577874487 1312.6084743754445 -1232.769815530896 0 0 0
2408 161 8 0 -2251.207755444422 1333.9869496807376 -1249.4473361446649 0 -1 0
4904 327 14 -1.5 -490.588426598506 1305.4399688788212 -1203.109087410743 0 0 0
5379 359 9 0 -405.6433227368709 1303.8845268893162 -1211.991022214734 0 0 0
5376 359 6 -0.5 -359.8482649125247 1320.0717865913289 -1238.6374275908067 0 0 0
4266 285 6 -0.5 -325.1278589781549 1308.9034735745888 -1210.156423208889 0 0 0
4274 285 14 -1.5 -304.43543130299184 1323.378249924974 -1246.8486038567205 0 0 0
4261 285 1 0 -779.0833337141028 1382.4939864963683 -1255.407063567599 0 0 0
4268 285 8 0 -702.1358136291167 1383.8834403412295 -1232.6109307150873 0 0 0
5385 359 15 0 -373.7733924572089 1364.3661095835223 -1208.308645539013 0 0 0
2409 161 9 0 -2257.726441385226 -1396.0354244875664 -1178.1595572678655 0 0 0
2406 161 6 -0.5 -2264.593068877272 -1345.4239432733457 -1165.2191586844388 0 0 0
2414 161 14 -1.5 -2256.1135418348513 -1301.808400280937 -1170.243074025087 0 0 0
3863 258 8 0 -508.03883211920174 -1214.2067179488015 -1152.1308639747024 0 0 0
3856 258 1 0 -503.9954240928374 -1184.4247574472251 -1181.2892325427936 0 0 0
2663 178 8 0 -210.3884926990103 -763.8023273352429 -1174.0858936760592 0 0 0
250 17 10 1 -1126.1754704226073 -512.3054027050922 -1128.2718175510934 0 0 0
247 17 7 2 -1073.5130153253074 -479.67302728737576 -1129.1042065000804 0 0 0
251 17 11 1 -1025.039090740181 -456.39620412134377 -1137.759886551172 0 0 0
5531 369 11 1 -2572.020540565282 -425.4713403168595 -1151.2570624582472 0 0 0
249 17 9 0 -961.5249819943825 -442.23145607422276 -1154.3695622068633 0 0 0
246 17 6 -0.5 -922.295988879494 -406.8868478665372 -1174.8130666921602 0 0 0
918 62 3 -1.5 -948.9882812996187 -391.09103840038574 -1132.804731060078 0 0 0
927 62 12 0 -903.6521587552178 -385.7357102742163 -1134.106156003078 0 0 0
254 17 14 -1.5 -878.8100366493682 -398.7957080848079 -1179.8880795255018 0 0 0
3121 209 1 0 -1312.219492120923 -232.00255508894978 -1186.8448564608143 0 0 0
3128 209 8 0 -1297.6286151558159 -171.85413517630934 -1149.400229014471 0 0 0
5431 363 1 0 -543.2607282366353 -166.60178490932228 -1192.0746502555837 0 0 0
5438 363 8 0 -562.0777454290101 -177.71223557989538 -1144.702290466053 0 0 0
653 44 8 0 -224.38372680441324 -185.34410984907137 -1187.6709904870436 0 0 0
3125 209 5 0 -1246.780698766077 -111.03042669149315 -1155.2068386438677 0 0 0
650 44 5 0 -185.9466913932497 -112.53281316923686 -1180.615384578591 0 0 0
657 44 12 0 -137.80367425573925 -58.04031133091121 -1172.8591314227078 0 0 0
2927 196 2 0 -2410.5201697547022 17.768908954574485 -1161.1560900643753 0 0 0
1711 115 1 0 -594.9093318962581 195.72922750655007 -1140.3641602332302 0 0 0
2389 160 4 0 -666.9507606096503 416.6701313508066 -1186.1636339024342 0 0 0
2387 160 2 0 -654.5277212212022 442.5461611102062 -1135.3645886231684 0 0 0
1424 95 14 -1.5 -1810.7260882888088 673.4198388775005 -1190.909266403314 0 0 0
4175 279 5 0 -875.236787862131 1171.8814497026196 -1195.7029641901433 0 0 0
4182 279 12 0 -806.0038451672879 1134.7724402631277 -1139.3724867360622 0 0 0
4180 279 10 1 -755.7460185199856 1163.660916339639 -1152.2036765853068 0 0 0
4900 327 10 1 -714.2110529987224 1155.7442752237184 -1143.9744448906915 0 0 0
4177 279 7 2 -706.579733594494 1191.1051598322044 -1175.3325835597766 0 0 0
4897 327 7 2 -664.9073514393305 1190.5248772762336 -1156.6831939700123 0 0 0
4355 291 5 0 -2223.1481568111417 1230.7802045464866 -1190.0054770194158 0 0 0
4362 291 12 0 -2149.3759927577803 1220.8056342669177 -1175.5816856788722 0 0 0
4242 283 12 0 -2111.8127687108013 1263.3025642228715 -1156.6768627002582 0 0 0
4353 291 3 -1.5 -2143.0232344380297 1234.6089025209974 -1126.4781612636457 0 0 0
5634 376 9 0 -721.0507641396192 1201.9617657277217 -1127.9618484089979 0 0 0
5631 376 6 -0.5 -676.2947555452316 1219.504663720781 -1148.8967094819013 0 0 0
5383 359 13 -0.5 -680.6134107963416 1226.3789483718667 -1147.9372954535577 0 0 0
4273 285 13 -0.5 -680.8334952848882 1226.0848181816918 -1152.5084783220877 0 0 0
5373 359 3 -1.5 -676.7378423542164 1262.7851103157436 -1170.6757919765344 0 0 0
4179 279 9 0 -612.8135163599673 1262.7486573194926 -1197.767540915266 0 0 0
4181 279 11 1 -665.7985321022235 1221.7574413629704 -1192.5718755701018 0 0 0
5639 376 14 -1.5 -632.3678884758419 1218.8674437284783 -1152.8350871311936 0 0 0
4901 327 11 1 -625.2707522510849 1225.4141278105635 -1168.3946426357957 0 0 0
4263 285 3 -1.5 -641.4083805093762 1238.6190697501795 -1163.1119584278013 0 0 0
4272 285 12 0 -606.1983344662798 1264.083653981616 -1142.2841947591587 0 0 0
4899 327 9 0 -568.6194934196974 1256.6486703593362 -1181.0388581342618 0 0 0
4905 327 15 0 -494.18418603070603 1239.6808557446393 -1189.168292876819 0 0 0
4892 327 2 0 -455.079285911988 1242.1836424142527 -1166.9290817682563 0 0 0
4174 279 4 0 -391.8226492123977 1243.403159627601 -1199.3236551488094 0 0 0
4894 327 4 0 -392.96728795212357 1255.6904226796696 -1157.9419985452444 0 0 0
4238 283 8 0 -2246.385752191919 1315.377420021923 -1183.090867744702 0 0 0
4235 283 5 0 -2198.1826142801438 1285.526390307262 -1178.6121776211746 0 0 0
5382 359 12 0 -642.8042648255208 1298.9579319703548 -1162.1096593686702 0 0 0
4270 285 10 1 -545.7014050177181 1276.4435460213278 -1143.77590541835 0 0 0
4176 279 6 -0.5 -580.8673897765374 1305.6133321528064 -1179.9790416992394 0 0 0
4184 279 14 -1.5 -545.0672093475545 1318.1725497218836 -1156.0346935355924 0 0 0
5380 359 10 1 -581.0797955290552 1301.000635126583 -1169.8510316843422 0 0 0
4896 327 6 -0.5 -531.4544175470613 1295.5511050824923 -1187.7248097697989 0 0 0
5381 359 11 1 -467.297683128959 1293.1153805039014 -1192.840998368076 0 0 0
5377 359 7 2 -520.5322270527207 1293.0465476288464 -1180.2650744346322 0 0 0
4267 285 7 2 -485.65442604434975 1285.8256207847567 -1155.1473029258336 0 0 0
4271 285 11 1 -433.8586804905562 1290.8001140620165 -1169.8930233777444 0 0 0
4269 285 9 0 -369.11524063503504 1289.2624486611116 -1185.0657530581514 0 0 0
4265 285 5 0 -664.1386870162636 1350.098357163175 -1187.71590056159 0 0 0
5372 359 2 0 -343.27202407419037 1418.6623207866753 -1183.310464668868 0 0 0
3619 242 4 0 -152.50594612858347 1396.474728100018 -1151.8077486820255 0 -1 0
5374 359 4 0 -353.4253251801891 1462.880337743595 -1172.2888492925515 0 0 0
3617 242 2 0 -162.67236595283237 1438.5752215687685 -1134.8022192120186 0 -1 0
3626 242 11 1 -334.0430920938716 -1441.75944350113 -1068.2159652937473 0 0 0
3624 242 9 0 -273.5095926361973 -1465.4477083409038 -1069.0561175514194 0 0 0
3630 242 15 0 -234.7715157563231 -1491.366341452155 -1115.6650050656606 0 0 0
3621 242 6 -0.5 -218.84707647821435 -1465.887014038399 -1072.8649701513175 0 0 0
3629 242 14 -1.5 -183.18436863688748 -1483.8489140769461 -1093.6367860408054 0 0 0
3625 242 10 1 -426.4673938181499 -1372.799046376422 -1068.2531499749969 0 0 0
3622 242 7 2 -380.76145049829415 -1414.8284103920598 -1066.6356626561426 0 0 0
3628 242 13 -0.5 -532.8579752202484 -1280.033294789777 -1104.7546518164665 0 0 0
3618 242 3 -1.5 -500.9738683400284 -1308.284004603519 -1109.512664185935 0 0 0
3627 242 12 0 -467.0568627504376 -1329.6914700740035 -1078.7805243348744 0 0 0
3867 258 12 0 -402.35060521512577 -1318.2291758579004 -1065.8239178226015 0 0 0
3858 258 3 -1.5 -369.8226501570998 -1335.1067062721186 -1104.1529260434831 0 0 0
3868 258 13 -0.5 -331.2528708455375 -1325.7218050395304 -1119.4033704950318 0 0 0
3860 258 5 0 -456.84559775686466 -1271.2620686653095 -1119.0510364196855 0 0 0
3751 251 1 0 -512.4252452199282 -831.7444225684836 -1066.2174179065646 0 0 0
1308 88 3 -1.5 -109.54041085406485 -874.6135748953636 -1066.6402067975744 0 0 0
1318 88 13 -0.5 -87.72045594811675 -858.4250116133135 -1100.0468609118595 0 0 0
1618 108 13 -0.5 -1323.8955235858004 -791.7463754107276 -1075.3025690327777 0 0 0
1608 108 3 -1.5 -1305.7574371744006 -767.5132464466127 -1105.870438468709 0 0 0
2660 178 5 0 -154.1327600991368 -770.5337283740123 -1106.9940072472618 0 0 0
2667 178 12 0 -63.35563405767536 -813.963698556399 -1056.8223259628862 0 0 0
2665 178 10 1 -10.626779842568384 -803.3798033779351 -1093.250114274311 0 0 0
1606 108 1 0 -1532.8451153546118 -742.9279450708884 -1088.21485513417 0 0 0
1613 108 8 0 -1480.0129048246313 -718.8204464166885 -1054.9413841478952 0 0 0
1610 108 5 0 -1393.6213948847808 -717.1069655816839 -1058.2435182495528 0 0 0
1617 108 12 0 -1295.1123988011518 -718.5987261498602 -1114.8179085021814 0 0 0
1615 108 10 1 -1258.165662771267 -660.5946262279756 -1105.6259527078646 0 0 0
1612 108 7 2 -1219.5598728963962 -613.7972695250842 -1095.0714633901973 0 0 0
253 17 13 -0.5 -1226.3707709197192 -590.6534540374753 -1064.4776649889982 0 0 0
243 17 3 -1.5 -1200.1912850024846 -577.6994697425528 -1095.7449803389786 0 0 0
1616 108 11 1 -1184.1206311142678 -574.9096735962121 -1084.1002323658395 0 0 0
252 17 12 0 -1181.2325528608255 -539.3992612293879 -1112.4741419065406 0 0 0
5535 369 15 0 -2559.9634202192096 -486.2538871831586 -1059.487257039649 0 0 0
245 17 5 0 -1234.1841722250276 -462.8872650139076 -1052.196780923773 0 0 0
1614 108 9 0 -1149.9325728428776 -515.2280876956787 -1076.1254489080886 0 0 0
1620 108 15 0 -1163.6718973573875 -467.90336889545523 -1086.5026832983087 0 0 0
1611 108 6 -0.5 -1112.4512767197339 -479.33980644022427 -1089.6712526516574 0 0 0
1619 108 14 -1.5 -1071.7608848167674 -462.61038932451123 -1090.8795255010132 0 0 0
5529 369 9 0 -2564.1233985143836 -446.05464857637025 -1087.807442646489 0 0 0
928 62 13 -0.5 -974.572166836495 -421.44480930471104 -1116.4807540202228 0 0 0
255 17 15 0 -918.9933793697953 -433.1343407048392 -1115.3995153048438 0 0 0
242 17 2 0 -851.5522074108748 -435.4016116772332 -1085.2818843441246 0 0 0
925 62 10 1 -850.5718359409536 -376.2918465430663 -1103.2019453362202 0 0 0
244 17 4 0 -791.8459799288086 -413.09421247005065 -1080.1851178310637 0 0 0
1607 108 2 0 -1147.9650634649513 -372.1699737865587 -1097.8425581947631 0 0 0
1609 108 4 0 -1133.1298243086824 -320.2462090632734 -1085.5902614549602 0 0 0
5064 338 9 0 -824.1011074773814 -304.1837254085043 -1059.2086196654786 0 0 0
3388 226 13 -0.5 -773.1395068477882 -370.200024793957 -1111.604203490555 0 0 0
922 62 7 2 -794.7475047084463 -363.9432641634869 -1077.8583562255283 0 0 0
5061 338 6 -0.5 -796.093947247687 -344.85291637463695 -1080.641113956745 0 0 0
5069 338 14 -1.5 -755.7322275424901 -362.6279872514999 -1086.959472476418 0 0 0
3378 226 3 -1.5 -745.0187565368523 -337.6725865980253 -1112.365488461536 0 0 0
3387 226 12 0 -712.2566102769869 -322.242147040766 -1076.0576989228618 0 0 0
926 62 11 1 -749.1818428758469 -345.45183504467474 -1056.4183286074654 0 0 0
3385 226 10 1 -654.0852463522228 -313.647313817317 -1052.9250166598802 0 0 0
3126 209 6 -0.5 -934.0728910102723 -237.05727723563697 -1069.1603626902352 0 0 0
3134 209 14 -1.5 -892.7917651344388 -227.91195743993703 -1056.8893649419558 0 0 0
5066 338 11 1 -878.2524273579374 -263.0488386754023 -1051.427935084746 0 0 0
5068 338 13 -0.5 -1106.0284501006154 -158.84473549764076 -1068.9533238347171 0 0 0
3129 209 9 0 -982.5359864401789 -215.38351848296955 -1081.3999760561196 0 0 0
3131 209 11 1 -1034.385771236776 -174.66936437157443 -1076.4648244174882 0 0 0
3135 209 15 0 -939.1757027379649 -197.24405924238397 -1070.6145545104691 0 0 0
5435 363 5 0 -547.1687951012294 -205.02433326996345 -1073.9934308007767 0 0 0
3130 209 10 1 -1119.2550564548606 -98.46815485818948 -1089.6301145570526 0 0 0
3127 209 7 2 -1072.653122352535 -138.14596991416317 -1084.3164203085005 0 0 0
3123 209 3 -1.5 -1191.3598111371502 -21.509930014310328 -1082.3200587167723 0 0 0
3132 209 12 0 -1162.591636462351 -57.274765829184666 -1103.4649589777762 0 0 0
655 44 10 1 -118.18113917041194 -53.340245251708325 -1113.7695534056907 0 0 0
652 44 7 2 -107.32074504686652 -51.32242940934972 -1053.0285057327853 0 0 0
2929 196 4 0 -2431.5286255350647 30.08610445704967 -1115.1939884853728 0 0 0
3133 209 13 -0.5 -1201.8846702833298 18.5970438597551 -1090.4934462222425 0 0 0
1291 87 1 0 -1093.0583770286146 208.88736802128346 -1097.5992192845692 0 0 0
1298 87 8 0 -1113.4344535846499 246.73894301600606 -1075.6961342274221 0 0 0
3109 208 4 0 -948.8180211733575 356.49668439304526 -1092.6717191692537 0 0 0
994 67 4 0 -748.1146685818509 329.1760574038802 -1082.7367302604018 0 0 0
3029 202 14 -1.5 -423.38807185008193 354.4286799221167 -1114.2272986486516 0 0 0
1292 87 2 0 -786.4971499237763 382.4423104645434 -1076.9621059319343 0 0 0
1294 87 4 0 -745.0837743261918 383.2596822784839 -1098.4245533766023 0 0 0
3025 202 10 1 -682.8887903607695 385.0587548321975 -1061.1367712096069 0 0 0
3022 202 7 2 -621.8153017669865 389.092727937846 -1071.071858301781 0 0 0
2400 160 15 0 -649.3722625555354 431.84492644024937 -1070.922805790863 0 0 0
2399 160 14 -1.5 -594.3404466351166 417.3005376462627 -1059.584100491436 0 0 0
3026 202 11 1 -568.9191493415285 397.33421755304363 -1078.3957293710848 0 0 0
3021 202 6 -0.5 -456.6417350549176 379.8994956952941 -1098.5064032360365 0 0 0
3024 202 9 0 -508.2793745692655 391.61261613878247 -1101.662032859802 0 0 0
3030 202 15 0 -458.73202424795517 434.629176567106 -1104.0581883097072 0 0 0
3023 202 8 0 -812.2708958993284 507.47738841326435 -1081.1428607544 0 0 0
3020 202 5 0 -803.0455775351007 450.6778475886793 -1077.0554327475804 0 0 0
3017 202 2 0 -421.35531236458814 495.84058707010854 -1087.2488267189071 0 0 0
3016 202 1 0 -869.0625444448821 546.8515361857859 -1105.471010012716 0 0 0
3019 202 4 0 -395.7127547262124 538.0602302927869 -1053.872023508274 0 0 0
5168 345 8 0 -2066.515713212098 646.4543526770187 -1065.9595829000755 0 0 0
5161 345 1 0 -2064.445956990806 664.8568917007237 -1105.8489443940537 0 0 0
3511 235 1 0 -1519.3603409555008 611.1432660545474 -1075.4729635583835 0 0 0
3518 235 8 0 -1473.626720834857 622.6277337578056 -1062.3816735901944 0 0 0
4662 311 12 0 -1181.0737576830536 814.5308553037501 -1056.0681882068798 0 0 0
4070 272 5 0 -2685.922283966825 960.7772305406284 -1052.650062215099 0 0 0
4083 273 3 -1.5 -1090.6621901906328 951.7776810955326 -1069.717380296254 0 0 0
4092 273 12 0 -1039.843771951047 956.3781169525474 -1072.4047177369405 0 0 0