LAMMPS data file via write_data, version 27 Jun 2024, timestep = 5440000, units = real

5730 atoms
15 atom types
5436 bonds
16 bond types
5730 angles
15 angle types

-3000 3000 xlo xhi
-1500 1500 ylo yhi
-1500 1500 zlo zhi

Masses

1 241.19
2 73.54000000000001
3 330.71
4 235.16
5 68.06999999999999
6 353.53
7 223.38
8 41.1
9 216.91
10 155.15
11 147.32
12 264.65
13 300.8
14 326.05
15 85.20999999999999

Pair Coeffs # lj/cut/coul/debye/gpu

1 0.71637 40.7505
2 0.665709 48.1397
3 1.15033 39.2216
4 0.726774 43.8077
5 0.514724 53.3428
6 1.17127 41.7847
7 1.2256 38.5601
8 0.675431 54.5696
9 1.26117 43.78
10 0.939007 42.5209
11 0.960667 41.1825
12 1.30988 48.0761
13 1.36645 37.7114
14 1.35529 39.2179
15 0.592003 47.2602

Bond Coeffs # harmonic

1 0.003 59.228
2 0.008 56.48
3 0.001 69.324
4 3.207 42.88
5 0.11 49.807
6 0.002 74.968
7 0.001 91.635
8 0.145 54.383
9 2.709 44.406
10 1.71 61.679
11 1.625 54.051
12 0.207 66.185
13 0.002 64.76
14 0.079 63.886
15 0.2 40
16 0.2 40

Angle Coeffs # harmonic

1 11.427 158.273
2 50.464 132.042
3 8.207 156.514
4 92.705 149.394
5 100 174.44
6 3.15 145.53
7 48.938 159.031
8 17.401 129.945
9 15.735 56.441
10 60 172.254
11 60.285 168.396
12 11.83 99.091
13 150 107.995
14 27.746 149.925
15 7.483 160.775

Atoms # full

2403 161 3 -1.5 -2400.527598026787 -1450.2118509755471 -1427.8827099139737 0 0 0
2412 161 12 0 -2356.6930588049336 -1461.3469907279557 -1443.7966247138565 0 0 0
2410 161 10 1 -2293.264064016639 -1453.1871010826603 -1431.3536074160438 0 0 0
2554 171 4 0 -1262.8170665377816 -1369.8350151294435 -1458.5791594005948 0 0 1
3623 242 8 0 -356.5653370755913 -1200.3642576458146 -1488.106263398286 0 0 0
2591 173 11 1 -1704.7295406823312 -423.5860068609703 -1464.9933497451045 0 0 1
972 65 12 0 -2699.311072003657 -276.7744631893852 -1425.900577106759 0 0 0
1071 72 6 -0.5 -393.59033527267655 -245.96857873819582 -1446.995314000435 0 0 1
1074 72 9 0 -399.558950915291 -284.338920078339 -1488.483316191318 0 0 1
1080 72 15 0 -373.3723457775903 -227.32335634448395 -1486.2125818684156 0 0 1
1069 72 4 0 -287.55824297693994 -126.03632707857142 -1495.6062647733627 0 0 1
962 65 2 0 -2448.5342708123485 -31.387872708277143 -1476.933121218009 0 0 0
648 44 3 -1.5 -319.0546413642021 -22.54152777218306 -1479.8076810112027 0 0 0
658 44 13 -0.5 -358.6491015651409 -9.61859733500914 -1491.80479236156 0 0 0
657 44 12 0 -284.5241168773726 -0.7355781891427282 -1448.3907542725542 0 0 0
964 65 4 0 -2405.888722834979 1.613251753703068 -1497.162747926872 0 0 0
4923 329 3 -1.5 -1860.4421281924333 478.7827609901984 -1473.1330791392331 0 0 0
4932 329 12 0 -1855.9939518222225 519.4032609796586 -1445.0349068636299 0 0 0
4933 329 13 -0.5 -1837.3344220491933 454.48004735980834 -1499.4916749178444 0 0 0
1418 95 8 0 -1776.5232586099191 489.8901200179433 -1454.8041986079197 0 0 0
1051 71 1 0 -740.6259433920674 479.6910375948789 -1447.3959512539348 0 0 0
4925 329 5 0 -1941.991261346633 580.4782404199743 -1488.647607807613 0 0 0
4928 329 8 0 -1979.2337706329843 650.3804732661281 -1476.0139617475504 0 0 0
1404 94 9 0 -2183.86303296829 918.5641700113227 -1498.1001942207154 0 0 1
1401 94 6 -0.5 -2137.4362142259674 929.3810139389352 -1472.7389155088408 0 0 1
1409 94 14 -1.5 -2093.497154328706 921.9451049714737 -1469.5447272116985 0 0 1
4477 299 7 2 -2022.3396591764797 957.6494675441429 -1488.9788127768857 0 0 0
4481 299 11 1 -1974.6412887687068 975.0205683193358 -1471.7556674573689 0 0 0
4479 299 9 0 -1922.3314274488214 1011.3256624414054 -1454.5880964713722 0 0 0
4476 299 6 -0.5 -1890.5779524763789 1055.5041672367422 -1441.362919098873 0 0 0
4484 299 14 -1.5 -1859.4457838170968 1085.6441959384176 -1450.9734165410482 0 0 0
2413 161 13 -0.5 -2418.9127462492847 -1433.5990841099456 -1392.7849626782386 0 0 0
2407 161 7 2 -2235.331737448032 -1444.1864892064978 -1413.4468699133313 0 0 0
2411 161 11 1 -2184.272130474898 -1438.8150663922497 -1396.7782670100166 0 0 0
2409 161 9 0 -2130.532852979293 -1431.3581282665214 -1363.279531586315 0 0 0
3628 242 13 -0.5 -415.2003508720409 -1350.8870528267719 -1366.6124207078728 0 0 0
3620 242 5 0 -352.8363203404674 -1250.4222182116966 -1408.4794559011227 0 0 0
3769 252 4 0 -1748.459077427697 -1046.1040506341606 -1394.988425145508 0 0 0
1813 121 13 -0.5 -2527.3053616476996 -619.2999459384891 -1387.3771147783018 0 0 0
1803 121 3 -1.5 -2535.5264616670875 -584.2880385381958 -1363.6745638756333 0 0 0
2582 173 2 0 -1629.139910846278 -566.3850931875456 -1361.317066037733 0 0 1
2595 173 15 0 -1655.6316560677071 -522.3166903051575 -1399.2185743203324 0 0 1
2586 173 6 -0.5 -1650.7764716035429 -461.4882984307463 -1368.1464533964415 0 0 1
2594 173 14 -1.5 -1610.4795228908029 -476.28124203997476 -1356.5575648322217 0 0 1
2589 173 9 0 -1684.8695624790764 -449.79716420699475 -1407.943134941095 0 0 1
973 65 13 -0.5 -2724.097426401589 -335.63031146221977 -1374.2717327011485 0 0 0
963 65 3 -1.5 -2728.500026865618 -310.83368324871867 -1408.6494725961459 0 0 0
970 65 10 1 -2641.774074020129 -242.21205138361674 -1420.0647855366478 0 0 0
2938 196 13 -0.5 -2573.078077245259 -237.16134055866908 -1424.4884773378155 0 0 0
2928 196 3 -1.5 -2569.126499841267 -236.49877106419973 -1382.3320053410484 0 0 0
1079 72 14 -1.5 -396.99023885192315 -235.66494616000537 -1403.7007133170855 0 0 1
967 65 7 2 -2592.146960651266 -208.13172621402313 -1406.7439526047717 0 0 0
971 65 11 1 -2550.579047923317 -173.3917958294108 -1397.4055855110362 0 0 0
2937 196 12 0 -2529.5042766569063 -223.63122586773875 -1350.6181028851847 0 0 0
2933 196 8 0 -2639.6736250524473 -97.59172745506102 -1351.9780611456233 0 0 0
969 65 9 0 -2491.0188042980208 -148.46074416502458 -1384.9506358776025 0 0 0
966 65 6 -0.5 -2437.079936904455 -148.70710003327025 -1380.4473331682996 0 0 0
975 65 15 0 -2467.6605230232367 -90.45038809559419 -1416.5747941604886 0 0 0
974 65 14 -1.5 -2400.7485731754077 -138.59761808314312 -1356.7754897304549 0 0 0
2926 196 1 0 -2622.949960885814 -61.992144466608224 -1410.7560911737912 0 0 0
655 44 10 1 -271.3899573340509 21.40960216598596 -1389.8249959606972 0 0 0
1415 95 5 0 -1748.6674051298817 482.3127032614727 -1401.3214008780067 0 0 0
1058 71 8 0 -735.8032471545961 500.24848739953325 -1392.7901955692853 0 0 0
4930 329 10 1 -1815.4546408330477 562.7954124398248 -1411.4596962789442 0 0 0
4927 329 7 2 -1789.4349815041137 608.275254105448 -1379.3205470577454 0 0 0
4681 313 1 0 -2954.644058718143 725.5001471570807 -1388.850195788634 0 0 0
4921 329 1 0 -1989.3980132124186 682.8014284700613 -1417.265908024575 0 0 0
4693 313 13 -0.5 -2804.796446122329 828.2814287191512 -1377.679983314116 0 0 0
4485 299 15 0 -1927.9110766550518 1047.1803687612712 -1421.8660132916702 0 0 0
4903 327 13 -0.5 -804.9390993162707 1121.606934795801 -1371.249222212697 0 0 0
5626 376 1 0 -976.6428336770211 1241.1459215116106 -1411.0845468978523 0 0 0
5633 376 8 0 -973.4927518430935 1209.7707274822371 -1355.542803899855 0 0 0
2415 161 15 0 -2111.410362130166 -1446.304362391202 -1316.0105016914272 0 0 0
2414 161 14 -1.5 -2055.243159056854 -1379.002378129911 -1339.930241838069 0 0 0
2406 161 6 -0.5 -2087.750793810736 -1409.4564315032553 -1338.4321506817928 0 0 0
3618 242 3 -1.5 -387.863620535744 -1360.1285599559149 -1334.6974310124206 0 0 0
3627 242 12 0 -344.773489670487 -1337.9912248377948 -1324.06833656168 0 0 0
3625 242 10 1 -298.4986214605571 -1323.792458329557 -1284.227159028548 0 0 0
3629 242 14 -1.5 -42.29515698505819 -1258.9735304627538 -1279.4516887701132 0 0 0
3774 252 9 0 -1756.3408301483469 -1145.0221986718268 -1285.0164686186556 0 0 0
3771 252 6 -0.5 -1704.5376747966309 -1146.6678063402198 -1295.577375484304 0 0 0
3779 252 14 -1.5 -1672.631850478361 -1131.0076425815043 -1322.4834531685983 0 0 0
3767 252 2 0 -1757.855507258383 -1062.5583780609702 -1346.9229628609928 0 0 0
3780 252 15 0 -1744.8528643979075 -1102.0005386832302 -1302.9472150803667 0 0 0
1812 121 12 0 -2502.7917213498495 -554.9348730597106 -1341.7968782836354 0 0 0
1810 121 10 1 -2445.007469317415 -547.5584104668717 -1315.094330872664 0 0 0
1807 121 7 2 -2386.808970925346 -534.5509369068792 -1299.759326296662 0 0 0
1811 121 11 1 -2338.6745168169305 -525.7554845402027 -1278.3474316665688 0 0 0
2584 173 4 0 -1575.8893322208482 -590.0529933367751 -1331.887785418627 0 0 1
1805 121 5 0 -2564.7130346346785 -491.30380421394847 -1307.4423774190464 0 0 0
1801 121 1 0 -2671.201233970456 -381.68813528462465 -1309.5163965125093 0 0 0
1808 121 8 0 -2604.8821131202653 -411.4893049340884 -1304.0798804277715 0 0 0
1802 121 2 0 -2196.9726510985533 -394.7091666633764 -1283.7130924607218 0 0 0
241 17 1 0 -1251.2524445808979 -391.3625231481453 -1320.600541966692 0 0 0
248 17 8 0 -1271.6931774962209 -432.8934035457641 -1293.2536116096046 0 0 0
1804 121 4 0 -2205.7020156309427 -352.5427694605341 -1336.2976223421351 0 0 0
2930 196 5 0 -2592.8396064593817 -163.20342576900842 -1338.58318001762 0 0 0
2935 196 10 1 -2474.1860400028236 -195.4302846430351 -1340.6007956451092 0 0 0
2932 196 7 2 -2424.529106099206 -159.92356533758178 -1332.2942250681347 0 0 0
2936 196 11 1 -2382.147559397182 -128.2476679317337 -1318.5567459831411 0 0 0
2934 196 9 0 -2326.391115440946 -104.52114415315779 -1294.8766238935614 0 0 0
2940 196 15 0 -2272.3266334304117 -53.98115003559736 -1325.8545759066444 0 0 0
2927 196 2 0 -2245.128331275389 20.735646686371446 -1311.5879072601504 0 0 0
2929 196 4 0 -2227.317497055786 67.82806994125505 -1278.6937900286923 0 0 0
652 44 7 2 -253.24836974754027 49.05552463222834 -1337.7729641601986 0 0 0
656 44 11 1 -231.388562365943 71.961104665244 -1293.8547475390535 0 0 0
1054 71 4 0 -364.67260018239745 338.0206713532187 -1295.5144350715887 0 0 0
1413 95 3 -1.5 -1743.482291503909 395.3385282905745 -1313.6641101336174 0 0 0
1423 95 13 -0.5 -1772.7109256602876 389.99873484810547 -1283.040309830391 0 0 0
1422 95 12 0 -1708.1915697031359 428.7696711608993 -1319.2959326763807 0 0 0
1420 95 10 1 -1654.2579446645511 459.6439683287773 -1301.9433093825883 0 0 0
1417 95 7 2 -1608.6127632364814 498.4703020036402 -1285.8605252112955 0 0 0
1055 71 5 0 -728.2477805538251 501.930184345483 -1322.1200369185956 0 0 0
4931 329 11 1 -1770.5673774614227 648.1223887200628 -1349.4703400587794 0 0 0
4688 313 8 0 -2928.1811681840086 687.9176113156483 -1330.3526797197894 0 0 0
4685 313 5 0 -2884.9596981015075 720.3189994713479 -1293.436938067743 0 0 0
4929 329 9 0 -1766.7515499551141 699.3493175668822 -1307.421058837307 0 0 0
4692 313 12 0 -2814.3778939980216 813.2729789720294 -1295.6577522281457 0 0 0
4935 329 15 0 -1800.5722763516096 752.4197429924342 -1317.8415043450934 0 0 0
4922 329 2 0 -1825.6006894681282 814.1760202708745 -1308.3432408661852 0 0 0
4683 313 3 -1.5 -2825.0957479813296 832.0275831724092 -1340.1002116179063 0 0 0
4924 329 4 0 -1861.4917282637186 856.2155449414214 -1295.6985266597849 0 0 0
4474 299 4 0 -1970.000150565507 1071.4555914743694 -1298.203167589983 0 0 0
4472 299 2 0 -1959.0906521789664 1072.1247166346868 -1347.0348552587443 0 0 0
5630 376 5 0 -954.0563053938297 1174.3465833413636 -1332.268370060146 0 0 0
4893 327 3 -1.5 -803.7270133278463 1130.7988115988737 -1329.2234232637716 0 0 0
4902 327 12 0 -762.2261799714357 1137.2292808939453 -1297.5513171207838 0 0 0
4082 273 2 0 -792.4650659565799 1179.1251186958202 -1277.9226605393208 0 0 0
4900 327 10 1 -697.4203832405974 1133.49478031266 -1279.2463384732812 0 0 0
5384 359 14 -1.5 -248.3055004663156 1275.913965483305 -1285.8649128541035 0 0 0
2402 161 2 0 -2083.758046379396 -1424.4916348944416 -1221.941982626491 0 0 0
3617 242 2 0 -35.94022048462811 -1379.684451450316 -1208.193861917061 0 0 0
3622 242 7 2 -242.11491292022814 -1310.92313135787 -1261.447599722425 0 0 0
3626 242 11 1 -192.7717057488145 -1293.1871819375392 -1248.6547420062032 0 0 0
3624 242 9 0 -126.54813518328208 -1284.251929493626 -1239.0757448842355 0 0 0
3630 242 15 0 -68.68055404508792 -1322.8737207567506 -1226.3740912160783 0 0 0
3621 242 6 -0.5 -73.8169227454512 -1281.2306849440765 -1258.29745233097 0 0 0
3775 252 10 1 -1920.0404235537303 -1144.0976500754673 -1210.8725670909425 0 0 0
3776 252 11 1 -1813.377508841737 -1149.7475497551052 -1252.3420426571422 0 0 0
3772 252 7 2 -1862.7367464421195 -1146.0948031954379 -1232.3895277423946 0 0 0
2668 178 13 -0.5 -274.5263660498562 -958.319030569237 -1229.9332782441845 0 0 0
2663 178 8 0 -290.2301061025227 -769.7725361414284 -1241.0912451438046 0 0 0
2664 178 9 0 -7.348712275208445 -810.0017434942148 -1204.2641314567306 0 0 0
2656 178 1 0 -250.879908076763 -739.5013079654058 -1238.5788028680843 0 0 0
916 62 1 0 -1029.0719447570705 -637.8406040091023 -1271.2874086798063 0 0 0
923 62 8 0 -963.2968651677284 -618.2861010791175 -1259.0539648597671 0 0 0
1814 121 14 -1.5 -2192.849944836886 -546.9637699972026 -1230.4962914936898 0 0 0
1809 121 9 0 -2283.80530782645 -517.1519410369148 -1242.6703187888168 0 0 0
1815 121 15 0 -2244.493604994317 -464.5986927645049 -1256.617945385684 0 0 0
1806 121 6 -0.5 -2230.465213762 -523.6584218654787 -1227.3050780408764 0 0 0
245 17 5 0 -1253.7148554866537 -449.5659927149516 -1215.1947189976775 0 0 0
2931 196 6 -0.5 -2276.863345558149 -107.11818410330422 -1271.8275454677705 0 0 0
2939 196 14 -1.5 -2250.23017348598 -126.93446364964402 -1242.3239649990646 0 0 0
3121 209 1 0 -1140.1396584465074 50.33123261465534 -1267.9105324516268 0 0 0
3128 209 8 0 -1129.0269721378545 72.20489230426254 -1220.5830834595129 0 0 0
654 44 9 0 -192.7485296527961 93.6676671767711 -1242.6336815227887 0 0 0
1723 115 13 -0.5 -445.61116082722066 243.7039536760542 -1233.5452741293275 0 0 0
1713 115 3 -1.5 -420.39819785668976 264.57331953824354 -1260.9867628197057 0 0 0
1715 115 5 0 -469.3568012553357 344.6895488802908 -1208.527956475066 0 0 0
1722 115 12 0 -397.89709096715416 310.4135834230544 -1255.5929009363801 0 0 0
1052 71 2 0 -393.3132694691367 371.51627694459876 -1253.5776451720058 0 0 0
1720 115 10 1 -346.0171680712832 341.89037600642285 -1229.0273456071898 0 0 0
1717 115 7 2 -295.66406668163916 370.1226127656972 -1207.7952051548996 0 0 0
1063 71 13 -0.5 -766.8383014032971 413.3106819044722 -1213.9183159614488 0 0 0
1053 71 3 -1.5 -759.6855541613844 453.5719052809493 -1227.6313045918132 0 0 0
1062 71 12 0 -723.098140913495 481.71408077982596 -1224.2054173409256 0 0 0
1060 71 10 1 -666.3235869410216 494.6045785692012 -1204.3984493057014 0 0 0
1065 71 15 0 -428.0291640886601 458.213846806426 -1207.1102022342925 0 0 0
1421 95 11 1 -1565.0636101072348 528.5179915727717 -1274.8872675662253 0 0 0
1419 95 9 0 -1509.9485577058208 559.7916275071233 -1256.1149017646876 0 0 0
1416 95 6 -0.5 -1474.0844349633717 579.9099483936734 -1219.73819791774 0 0 0
1425 95 15 0 -1506.1654796105274 630.6988905029028 -1203.4020562810285 0 0 0
4934 329 14 -1.5 -1804.6371875241844 727.7409176642893 -1224.2871201196058 0 0 0
4926 329 6 -0.5 -1789.6031462779385 727.329753773755 -1266.1966743856979 0 0 0
4690 313 10 1 -2770.457092973237 801.5611827887828 -1253.4790091537257 0 0 0
4687 313 7 2 -2734.8906421541938 799.6478749183198 -1203.3072098967161 0 0 0
1414 95 4 0 -1473.8772702476574 760.9569451571454 -1204.715272576958 0 0 0
4093 273 13 -0.5 -1180.6460933600085 1022.3003871016033 -1210.1149410423661 0 0 0
4656 311 6 -0.5 -1029.9844210355584 1037.1631784945503 -1221.4435302624813 0 0 0
4664 311 14 -1.5 -987.2782436910614 1047.44036719883 -1228.4422438422412 0 0 0
4083 273 3 -1.5 -1161.8935905465698 1053.1592366213688 -1233.2132683863733 0 0 0
4092 273 12 0 -1118.7729666950383 1073.79959955543 -1233.2743662413684 0 0 0
4659 311 9 0 -1080.197732476588 1051.8606262147316 -1203.7367435057947 0 0 0
4090 273 10 1 -1055.8616467872641 1071.490703430485 -1243.0665833058938 0 0 0
4087 273 7 2 -995.6384414963832 1085.5433895521578 -1240.602737060217 0 0 0
5638 376 13 -0.5 -976.3248035919796 1093.1932283012213 -1207.6134857645366 0 0 0
4091 273 11 1 -943.8261638826585 1100.8424937892944 -1235.924161050818 0 0 0
5628 376 3 -1.5 -962.2211076599492 1122.0576862804292 -1235.8116927945805 0 0 0
5632 376 7 2 -800.5973606292854 1116.8454447425815 -1256.975620020739 0 0 0
5636 376 11 1 -747.5827517497789 1107.0098461271905 -1249.460069181423 0 0 0
5634 376 9 0 -683.6070237363463 1108.1408984812745 -1237.0971387846573 0 0 0
5383 359 13 -0.5 -623.9671710822837 1108.4263163417197 -1241.3773011846736 0 0 0
5631 376 6 -0.5 -632.3288122376619 1122.1793672716146 -1245.3504143719065 0 0 0
5373 359 3 -1.5 -588.4325887790309 1112.6765570596367 -1263.8956744605684 0 0 0
4085 273 5 0 -1141.960991582126 1146.2788446736254 -1210.2846767676695 0 0 0
5637 376 12 0 -922.5184605879017 1125.86072883192 -1266.1974980951484 0 0 0
5635 376 10 1 -860.5484409893465 1126.4261151925232 -1265.1538583137376 0 0 0
4089 273 9 0 -886.1950181210772 1129.6692727371517 -1219.871179036626 0 0 0
4086 273 6 -0.5 -834.8802532707028 1132.4353481834873 -1211.1732725100114 0 0 0
4183 279 13 -0.5 -831.0023814155222 1135.7111927608505 -1235.4290815755116 0 0 0
4095 273 15 0 -844.6558949145339 1172.5159993611242 -1258.8331422320334 0 0 0
4094 273 14 -1.5 -793.0005782786291 1137.0525527658635 -1224.7415596722049 0 0 0
4173 279 3 -1.5 -789.757599321805 1143.9237190260958 -1243.8459451660424 0 0 0
4895 327 5 0 -811.4642432518846 1180.0899924775008 -1220.3813916324007 0 0 0
4182 279 12 0 -745.7489512018109 1152.8360341243547 -1219.1658746217422 0 0 0
4084 273 4 0 -740.94698200615 1172.2576748589122 -1266.750347089031 0 0 0
5639 376 14 -1.5 -602.5393999976103 1145.068937258504 -1269.4085975341134 0 0 0
4897 327 7 2 -640.4585557162952 1141.7605825774542 -1256.3946756385417 0 0 0
5382 359 12 0 -552.3291647368677 1146.3843308514138 -1261.5045611399187 0 0 0
4901 327 11 1 -592.2000865515926 1153.6689346810258 -1236.9700165961094 0 0 0
4273 285 13 -0.5 -588.6239584137077 1192.0927756297679 -1254.29398122938 0 0 0
4899 327 9 0 -529.2057323856938 1174.6945182842132 -1223.5163456988635 0 0 0
4263 285 3 -1.5 -568.9542376262151 1192.8217919715175 -1217.1651786017173 0 0 0
5380 359 10 1 -487.88470934950846 1166.7601684445087 -1265.876969628886 0 0 0
4896 327 6 -0.5 -479.6671210641734 1195.5386758479603 -1229.6160943330863 0 0 0
5377 359 7 2 -426.2136179453632 1175.2069827071125 -1263.937843053734 0 0 0
5381 359 11 1 -373.4444035564804 1188.402793298798 -1263.1842580753791 0 0 0
4238 283 8 0 -2323.9851900022345 1266.6431381496386 -1253.7648078158957 0 0 0
4363 291 13 -0.5 -2290.7834987200977 1229.4571396652746 -1260.260785665288 0 0 0
4353 291 3 -1.5 -2252.2632818550114 1248.1835683151326 -1268.1581452106404 0 0 0
4235 283 5 0 -2255.214093805271 1215.7957328164575 -1231.8495617522328 0 0 0
4362 291 12 0 -2217.0069578076955 1266.9158131873785 -1238.0660564434083 0 0 0
4651 311 1 0 -1417.9878449207793 1229.3154082794151 -1207.0310720501568 0 0 0
4081 273 1 0 -1218.6877202499193 1248.0702686927377 -1202.2865262657917 0 0 0
4175 279 5 0 -727.1848740776527 1222.579546679528 -1255.5400994240026 0 0 0
5375 359 5 0 -615.2162082544904 1225.858342066242 -1231.5814791008393 0 0 0
4272 285 12 0 -530.2610850151011 1224.6604098831413 -1204.892190562479 0 0 0
4904 327 14 -1.5 -449.86153236167564 1207.757085175653 -1259.5180548753435 0 0 0
5379 359 9 0 -312.6189515761576 1212.606992239467 -1251.0622877057717 0 0 0
5376 359 6 -0.5 -270.3902820519584 1246.7481303228124 -1261.0255251913543 0 0 0
4231 283 1 0 -2339.59014207394 1315.1726931178448 -1257.302930239154 0 0 0
4360 291 10 1 -2160.0234172682926 1278.94061365994 -1215.9680604247546 0 0 0
4178 279 8 0 -714.373844113368 1294.7562275241805 -1248.146069100414 0 0 0
4171 279 1 0 -673.0166196931731 1340.6120847511072 -1240.7211799796019 0 0 0
4265 285 5 0 -554.4112793865623 1318.2442546366092 -1258.3919823644162 0 0 0
4268 285 8 0 -578.7001783621432 1404.385793957175 -1260.1910251075674 0 0 0
4261 285 1 0 -613.4397024546988 1429.3446532663904 -1239.5251284183632 0 0 0
2404 161 4 0 -2051.3594371992153 -1397.0435022370216 -1190.3498090989913 0 0 0
3778 252 13 -0.5 -2042.5337186072404 -1178.4943947908434 -1172.125596746362 0 0 0
3768 252 3 -1.5 -2022.3860763105704 -1141.966160763988 -1180.3396742202158 0 0 0
3777 252 12 0 -1976.0745422894063 -1128.7362626130325 -1184.0338009937664 0 0 0
3770 252 5 0 -1967.809679831984 -1035.6705019445071 -1140.2754050681222 0 0 0
2658 178 3 -1.5 -257.64425121407845 -946.2127810363462 -1192.224146236281 0 0 0
2667 178 12 0 -215.4491300487121 -923.6346617857387 -1185.1699469213434 0 0 0
2665 178 10 1 -156.30788737318125 -908.2167188031179 -1195.775728290468 0 0 0
2660 178 5 0 -265.8429146766975 -848.03151442134 -1187.2041710828616 0 0 0
2662 178 7 2 -100.57332711141119 -881.9903095662894 -1197.7649421847684 0 0 0
2666 178 11 1 -53.6088733408399 -855.8663631420999 -1197.7881225443373 0 0 0
2670 178 15 0 -1.281449450248567 -742.3607024918081 -1187.9205851935346 0 0 0
920 62 5 0 -939.4696413426788 -601.1091753904988 -1170.120759702062 0 0 0
2657 178 2 0 -21.67415999681487 -667.518244219268 -1151.2405025796284 0 0 0
1618 108 13 -0.5 -1598.0351459099907 -588.5322751539898 -1173.3772447435306 0 0 0
1617 108 12 0 -1519.0642870396482 -554.602525123118 -1182.3769935231915 0 0 0
1608 108 3 -1.5 -1556.6104829542733 -586.2592439419822 -1184.3971596762046 0 0 0
1615 108 10 1 -1458.3364272806236 -544.5956769928945 -1178.0798122090378 0 0 0
1612 108 7 2 -1398.3243995987386 -539.9381156953797 -1164.047127891898 0 0 0
1616 108 11 1 -1345.7591934116706 -540.6745262431965 -1152.9054620743366 0 0 0
1614 108 9 0 -1279.3997240008064 -527.2128955117237 -1150.7519750376844 0 0 0
1610 108 5 0 -1545.2964884077949 -521.1140942125962 -1152.5975928294558 0 0 0
1613 108 8 0 -1565.3235672151195 -450.42720003571486 -1157.1785101995558 0 0 0
253 17 13 -0.5 -1334.3786057468428 -471.5185043022764 -1146.397236007103 0 0 0
243 17 3 -1.5 -1292.0828512860642 -478.0968992244179 -1152.5549280619005 0 0 0
1620 108 15 0 -1241.7248205737917 -491.12352001886154 -1183.988362048187 0 0 0
1611 108 6 -0.5 -1230.6188469067113 -512.5161870787415 -1138.6212318324363 0 0 0
252 17 12 0 -1248.62082739134 -458.01867161407563 -1141.7156998325454 0 0 0
1607 108 2 0 -1177.8058982512925 -476.42765003912564 -1192.7018813884445 0 0 0
1619 108 14 -1.5 -1186.496556063243 -510.7203874056303 -1144.2907151857364 0 0 0
250 17 10 1 -1191.6176963707683 -473.5738591140445 -1126.2725620116564 0 0 0
1609 108 4 0 -1119.391778263093 -478.4059034815932 -1192.2702761544135 0 0 0
244 17 4 0 -917.1629691602881 -387.27179946007897 -1138.8423926617024 0 0 0
242 17 2 0 -936.2514736894199 -439.00757165351183 -1125.6201252638625 0 0 0
5433 363 3 -1.5 -399.1551215008275 -110.45622426412201 -1133.5137851026127 0 0 0
5443 363 13 -0.5 -430.62084385508297 -135.54671139779654 -1147.3274079180892 0 0 0
649 44 4 0 -164.18753206012545 -93.86697988956688 -1147.1785762815928 0 0 0
3124 209 4 0 -774.4136510638863 -66.32044667683368 -1173.025075433673 0 0 0
3122 209 2 0 -806.4885750795587 -58.764291628231845 -1140.844892238336 0 0 0
5059 338 4 0 -544.810383890263 -9.45212550985063 -1157.116317297379 0 0 0
647 44 2 0 -159.16967646061195 -30.755683457360234 -1153.3216884012693 0 0 0
3125 209 5 0 -1131.6667248724916 49.391226263442576 -1134.9624718212965 0 0 0
5057 338 2 0 -580.8316356629014 16.164607906008452 -1136.5886162017182 0 0 0
660 44 15 0 -166.7337920336866 47.95906494727736 -1195.5681298291304 0 0 0
993 67 3 -1.5 -985.9559083291198 123.90896496783583 -1135.1896740777242 0 0 0
1003 67 13 -0.5 -990.9576715332565 137.33265703701647 -1175.7864277328335 0 0 0
651 44 6 -0.5 -176.58433363425533 117.57767049173646 -1195.481226946982 0 0 0
659 44 14 -1.5 -178.28586021099795 124.31734142265108 -1151.7401733404918 0 0 0
991 67 1 0 -1204.0506930596418 276.9906922001195 -1144.3937493920544 0 0 0
998 67 8 0 -1150.4419361319412 255.39129488874897 -1149.8531170200695 0 0 0
1291 87 1 0 -1257.1065330895337 331.3024228507689 -1165.2827097780885 0 0 0
1298 87 8 0 -1197.053281392656 338.00774914167454 -1165.1648898773387 0 0 0
1711 115 1 0 -601.4411042709208 342.41684888885607 -1167.0624944846736 0 0 0
1718 115 8 0 -556.0695865619739 349.1107275337995 -1195.0706682643286 0 0 0
1721 115 11 1 -255.34703765497414 399.39367003255956 -1189.1786409855474 0 0 0
1719 115 9 0 -212.66382783562477 441.9782956161479 -1162.2289432159835 0 0 0
1057 71 7 2 -606.4691890499075 501.60782588571624 -1190.391571295176 0 0 0
1061 71 11 1 -552.5008747842401 499.76408908480425 -1184.0276857676067 0 0 0
1059 71 9 0 -488.39738318101666 492.7936975931955 -1169.6979655675777 0 0 0
1056 71 6 -0.5 -445.0879035475502 476.48325012869105 -1138.257115751967 0 0 0
1064 71 14 -1.5 -404.14751249643 459.5303716420146 -1136.203655096383 0 0 0
1725 115 15 0 -165.55003782488717 497.1498195765701 -1168.172111048969 0 0 0
1712 115 2 0 -142.6363186848044 538.3082645434654 -1165.0167222067623 0 0 0
1714 115 4 0 -93.98648792984164 576.25054520844 -1161.8296357794009 0 0 0
5161 345 1 0 -2288.522810899502 632.568575125522 -1179.7867345687953 0 0 0
5168 345 8 0 -2252.5204668309957 663.9373406831105 -1133.151456787124 0 0 0
1424 95 14 -1.5 -1460.810021662383 610.408785463782 -1189.3662686774835 0 0 0
1412 95 2 0 -1498.6503940959549 705.9101632092073 -1197.1575797499695 0 0 0
4691 313 11 1 -2698.0269140631735 798.9951636111324 -1163.5328540874768 0 0 0
4663 311 13 -0.5 -1387.9684089195134 1027.4678674247762 -1129.0965297088608 0 0 0
4660 311 10 1 -1255.5671174957306 1048.18828555847 -1162.5790321245802 0 0 0
4657 311 7 2 -1196.6581140518647 1047.4304668649156 -1181.2777800667727 0 0 0
4662 311 12 0 -1315.156305896642 1050.9375648387288 -1156.0393338148783 0 0 0
4661 311 11 1 -1144.9140053177125 1050.62514689774 -1197.187409117883 0 0 0
4665 311 15 0 -1011.724045934776 1108.1016085581912 -1183.1681935972035 0 0 0
4652 311 2 0 -917.6903338614742 1116.5829026259617 -1183.3852257907286 0 0 0
4243 283 13 -0.5 -2241.5291394501965 1158.3270829720338 -1129.0826852664588 0 0 0
4233 283 3 -1.5 -2200.993669335367 1173.6319549230473 -1127.9046554116856 0 0 0
4242 283 12 0 -2173.0185273928873 1191.4600057061077 -1164.5417259248034 0 0 0
4658 311 8 0 -1391.009642249914 1197.5734271278604 -1164.3862111059325 0 0 0
4655 311 5 0 -1336.58368244463 1139.2038031971922 -1167.8499405301484 0 0 0
4088 273 8 0 -1197.9977549889945 1194.9106956056564 -1190.3393052889 0 0 0
4654 311 4 0 -868.159494744422 1156.9398912551771 -1172.404364050202 0 0 0
4180 279 10 1 -709.1835804127235 1145.8420208318291 -1161.8041360655777 0 0 0
5640 376 15 0 -651.7060605751923 1133.1214212997938 -1198.5620185362727 0 0 0
5627 376 2 0 -639.1421815382662 1160.6549741337237 -1152.3105526630784 0 0 0
4905 327 15 0 -493.76339914456787 1175.5899883838993 -1176.6304790648812 0 0 0
4240 283 10 1 -2122.7116161611443 1227.2163381115624 -1177.903532168721 0 0 0
4237 283 7 2 -2068.162059197462 1254.762017523716 -1180.8709342648206 0 0 0
4898 327 8 0 -813.243617587194 1232.6066683828406 -1193.7412021990995 0 0 0
4891 327 1 0 -779.4951274812435 1271.0731720626236 -1161.066622860757 0 0 0
5378 359 8 0 -685.5162701525337 1256.9743539083568 -1170.5600503928788 0 0 0
5629 376 4 0 -622.1650701728364 1204.487459802414 -1137.344680448112 0 0 0
4270 285 10 1 -468.6688130328334 1228.3410262806206 -1185.6187028912082 0 0 0
4892 327 2 0 -453.05270263976917 1226.1575150044657 -1138.8569390991422 0 0 0
4267 285 7 2 -413.3182326620719 1227.6096437110168 -1157.6975463462081 0 0 0
4271 285 11 1 -366.4113949170554 1234.4226705550216 -1129.484997577074 0 0 0
5385 359 15 0 -276.88721063101997 1239.4943070821794 -1189.3543444725276 0 0 0
5372 359 2 0 -230.4910980376647 1257.9672633600994 -1135.433834024659 0 0 0
4355 291 5 0 -2272.489383619654 1322.2367883512259 -1189.8981542874049 0 0 0
4357 291 7 2 -2105.7255948212332 1291.3776433429784 -1187.9842325981483 0 0 0
4361 291 11 1 -2058.8589395378826 1308.037320316262 -1166.7940861185718 0 0 0
4241 283 11 1 -2018.9085708479793 1276.7980941071446 -1181.7921632480752 0 0 0
4239 283 9 0 -1961.1560877966883 1308.6542881653133 -1178.290388207376 0 0 0
4359 291 9 0 -2001.239403237097 1311.271430296761 -1132.969415339064 0 0 0
4236 283 6 -0.5 -1920.5486021334398 1331.3185265852917 -1152.2111486241652 0 0 0
5371 359 1 0 -743.9522308983488 1295.840692270808 -1144.4848885792985 0 0 0
4358 291 8 0 -2296.036260684217 1362.9837834829102 -1127.6269043724133 0 0 0
4245 283 15 0 -1943.9365448130334 1364.9756863823388 -1182.5509764077724 0 0 0
4232 283 2 0 -1869.9938171598167 1446.6616236382572 -1161.1016380375413 0 0 0
4234 283 4 0 -1824.4826081734163 1475.8353722386314 -1169.2001430209743 0 0 0
1160 78 5 0 -1498.0863353886484 -1315.2152679600067 -1066.3404125166553 0 0 0
1163 78 8 0 -1463.0334440478725 -1270.308057658257 -1100.515775023014 0 0 0
1156 78 1 0 -1434.123390632113 -1236.2659119565267 -1086.6900661401223 0 0 0
3773 252 8 0 -1973.9181767181128 -977.7035743901263 -1095.5359148599207 0 0 0
3766 252 1 0 -2012.7981009804494 -931.7948698195687 -1057.2315267628483 0 0 0
5523 369 3 -1.5 -2594.237327798553 -718.1096701117341 -1080.3101630461992 0 0 0
5533 369 13 -0.5 -2594.431153883649 -743.223366241419 -1115.1095440031938 0 0 0
928 62 13 -0.5 -981.4736320475125 -676.3994125585632 -1082.0806268971792 0 0 0
5525 369 5 0 -2671.645871424631 -606.1921157739299 -1089.0842991997138 0 0 0
5532 369 12 0 -2579.473858092889 -671.2362662914431 -1066.7920349871547 0 0 0
918 62 3 -1.5 -969.487071129848 -635.4021700721946 -1078.3924785048273 0 0 0
927 62 12 0 -924.3247395507698 -616.4182903915159 -1088.5554609269716 0 0 0
2659 178 4 0 -11.280595183725724 -623.8420678877408 -1103.7311434317937 0 0 0
5528 369 8 0 -2722.06029548987 -580.9408556038171 -1070.5802633447715 0 0 0
925 62 10 1 -865.4454205350143 -591.4234139446567 -1069.2668389626592 0 0 0
922 62 7 2 -812.5676434624525 -563.6486047052108 -1056.8825092572617 0 0 0
247 17 7 2 -1136.251505241854 -485.08900003111654 -1100.487361436584 0 0 0
251 17 11 1 -1085.045077251713 -492.12101276820766 -1084.305454010517 0 0 0
249 17 9 0 -1022.969936008205 -516.7810229570902 -1077.1391824175803 0 0 0
246 17 6 -0.5 -971.6558295968936 -523.3697641771579 -1053.1298195815616 0 0 0
255 17 15 0 -959.9838803187142 -471.4389214210758 -1107.067998485823 0 0 0