LAMMPS data file via write_data, version 27 Jun 2024, timestep = 28480000, units = real

5730 atoms
15 atom types
5660 bonds
16 bond types
5730 angles
15 angle types

-3000 3000 xlo xhi
-1500 1500 ylo yhi
-1500 1500 zlo zhi

Masses

1 241.19
2 73.54000000000001
3 330.71
4 235.16
5 68.06999999999999
6 353.53
7 223.38
8 41.1
9 216.91
10 155.15
11 147.32
12 264.65
13 300.8
14 326.05
15 85.20999999999999

Pair Coeffs # lj/cut/coul/debye/gpu

1 0.71637 40.7505
2 0.665709 48.1397
3 1.15033 39.2216
4 0.726774 43.8077
5 0.514724 53.3428
6 1.17127 41.7847
7 1.2256 38.5601
8 0.675431 54.5696
9 1.26117 43.78
10 0.939007 42.5209
11 0.960667 41.1825
12 1.30988 48.0761
13 1.36645 37.7114
14 1.35529 39.2179
15 0.592003 47.2602

Bond Coeffs # harmonic

1 0.003 59.228
2 0.008 56.48
3 0.001 69.324
4 3.207 42.88
5 0.11 49.807
6 0.002 74.968
7 0.001 91.635
8 0.145 54.383
9 2.709 44.406
10 1.71 61.679
11 1.625 54.051
12 0.207 66.185
13 0.002 64.76
14 0.079 63.886
15 0.2 40
16 0.2 40

Angle Coeffs # harmonic

1 11.427 158.273
2 50.464 132.042
3 8.207 156.514
4 92.705 149.394
5 100 174.44
6 3.15 145.53
7 48.938 159.031
8 17.401 129.945
9 15.735 56.441
10 60 172.254
11 60.285 168.396
12 11.83 99.091
13 150 107.995
14 27.746 149.925
15 7.483 160.775

Atoms # full

3769 252 4 0 -1517.2866142977934 -1296.2537468967498 -1496.026243462667 0 0 0
3766 252 1 0 -2014.6137598093924 -1246.4089374302378 -1445.425986283539 0 0 0
3772 252 7 2 -1756.3358491379201 -1215.3384826339673 -1447.8911480367203 0 0 0
3776 252 11 1 -1719.4978996788473 -1212.4338244068026 -1487.509770809893 0 0 0
3773 252 8 0 -1989.327214733011 -1189.3923863384707 -1426.640252126998 0 0 0
2563 171 13 -0.5 -1242.9643258488472 -1112.6940133173941 -1466.4894086113059 0 0 1
2553 171 3 -1.5 -1225.8628287987858 -1112.9458841061407 -1427.0001295276534 0 0 1
1082 73 2 0 -2553.83631008565 -1025.49378843704 -1476.3847679520286 0 0 1
5704 381 4 0 -451.23338586765794 -729.6356497712811 -1442.001775090564 0 0 1
5702 381 2 0 -444.39148786628533 -694.4393105075259 -1489.0541591059782 0 0 1
1814 121 14 -1.5 -2742.7388747347227 -595.88755232616 -1464.727300511729 0 0 0
1806 121 6 -0.5 -2719.890245917898 -569.0999002576322 -1437.2486463512566 0 0 0
965 65 5 0 -2709.7760913422176 -333.1704169714342 -1451.697034296821 0 0 0
2586 173 6 -0.5 -1611.2174091370168 -325.0121948328201 -1493.4162050777475 0 0 1
2594 173 14 -1.5 -1609.966981227062 -360.55314928910616 -1467.028748450147 0 0 1
2933 196 8 0 -2633.277781144326 -195.16416366707602 -1482.4342538175244 0 0 0
1063 71 13 -0.5 -831.8885900570751 138.9001362115638 -1454.6484328092183 0 0 0
1053 71 3 -1.5 -810.1236405098249 163.3522351093822 -1427.1189324961385 0 0 0
1062 71 12 0 -770.432722123898 193.69349096501992 -1433.7289883182586 0 0 0
4931 329 11 1 -1857.0137923676357 520.9983867799118 -1460.308437487843 0 0 0
4480 299 10 1 -2060.814415339421 1035.4270968393084 -1490.2704758251525 0 0 0
4477 299 7 2 -2030.1082165417554 1061.4318681960106 -1444.5604490719118 0 0 0
2412 161 12 0 -2280.2690802535026 1399.0193238046486 -1454.666126570605 0 -1 0
2403 161 3 -1.5 -2287.7328149394116 1370.4391789999563 -1494.4883891827603 0 -1 0
2554 171 4 0 -945.3722029370135 -1410.901017720652 -1350.3243263124546 0 0 1
2551 171 1 0 -1404.9322216879232 -1306.8824668551438 -1413.1182693852036 0 0 1
3775 252 10 1 -1798.7581351381784 -1210.68384703559 -1403.2382975406917 0 0 0
2558 171 8 0 -1358.7894688833637 -1266.2539899850303 -1406.9342337773298 0 0 1
2555 171 5 0 -1294.8678500526992 -1212.1294921926576 -1386.408073456685 0 0 1
2557 171 7 2 -1096.8583373551126 -1215.792008041068 -1375.1655890568936 0 0 1
2561 171 11 1 -1049.7333016729306 -1230.0934834813024 -1354.2123569756313 0 0 1
3770 252 5 0 -1935.3576393697124 -1174.083376654257 -1402.1020900067604 0 0 0
3777 252 12 0 -1841.2494098071495 -1192.445442805861 -1358.6713146303055 0 0 0
2562 171 12 0 -1201.0982059686175 -1152.2447048079202 -1413.4864877545474 0 0 1
2560 171 10 1 -1146.9949324501538 -1186.2537216495289 -1396.841134762041 0 0 1
1084 73 4 0 -2557.974759855613 -1032.8158861900843 -1420.4960099268956 0 0 1
1804 121 4 0 -2611.809326501822 -702.3791400604061 -1397.053885133872 0 0 0
1802 121 2 0 -2632.0056068398885 -651.1041591194248 -1399.398818142236 0 0 0
1815 121 15 0 -2689.524773202636 -604.3690805468641 -1403.386522068165 0 0 0
1809 121 9 0 -2716.886353277223 -533.068280174414 -1396.3807603841715 0 0 0
1811 121 11 1 -2687.6025811377867 -482.7606714347568 -1364.0642232038251 0 0 0
973 65 13 -0.5 -2761.032686967575 -399.48584546328607 -1370.6460624922026 0 0 0
963 65 3 -1.5 -2723.707893625528 -394.5059922885824 -1351.2348459383693 0 0 0
5533 369 13 -0.5 -2657.024193212033 -405.0988396526245 -1367.5365933777032 0 0 0
1801 121 1 0 -2825.186479778179 -316.6429170377788 -1371.314208525228 0 0 0
972 65 12 0 -2683.136349278783 -367.8471952743983 -1367.307199800093 0 0 0
2930 196 5 0 -2610.734056609148 -203.92361441056337 -1402.6682245457503 0 0 0
1060 71 10 1 -721.5678902162804 231.12290567773348 -1411.3782786439078 0 0 0
1057 71 7 2 -679.4703788186877 271.7599599410293 -1393.33828420581 0 0 0
1723 115 13 -0.5 -673.1432983980557 282.56358305017466 -1357.5552554212757 0 0 0
1061 71 11 1 -640.0440241614441 299.97621955572396 -1369.9575996049934 0 0 0
1059 71 9 0 -593.6494399450946 343.92848293080596 -1353.9228414587233 0 0 0
1423 95 13 -0.5 -1636.974595663841 438.65116718678047 -1360.8717049430268 0 0 0
1065 71 15 0 -583.1897315610289 403.6458618341159 -1354.5504232758701 0 0 0
1052 71 2 0 -548.4093375245318 464.0988394919059 -1370.8820975859117 0 0 0
1054 71 4 0 -535.7856986949699 521.7130126504975 -1385.6857695384895 0 0 0
1716 115 6 -0.5 -393.5152620502695 510.794379599815 -1355.5177261416488 0 0 0
1724 115 14 -1.5 -349.7483669894802 505.00553779938735 -1361.2477529309615 0 0 0
4929 329 9 0 -1849.825170727966 553.2217100826742 -1404.289105332134 0 0 0
4926 329 6 -0.5 -1825.7725031358075 570.5316307411924 -1361.2461745519345 0 0 0
1411 95 1 0 -1505.2437322969706 576.9130965438576 -1392.2150060802637 0 0 0
1418 95 8 0 -1558.4135972497068 584.020295006962 -1397.071123106327 0 0 0
1414 95 4 0 -1755.4766266618929 847.0451293720257 -1352.9124158827199 0 0 0
4364 291 14 -1.5 -2011.1578622494044 1041.5074951127326 -1418.4017570104145 0 0 0
4234 283 4 0 -1934.5974906125111 978.2313208245763 -1366.5915124135404 0 0 0
4365 291 15 0 -2057.854420307931 1096.1802453419866 -1420.8919405679255 0 0 0
4244 283 14 -1.5 -2031.6974212234463 1057.1262477481155 -1403.9895358608821 0 0 0
4236 283 6 -0.5 -2047.9499150949805 1068.6033017000777 -1363.632227555981 0 0 0
4359 291 9 0 -2031.0179453756482 1117.75398698168 -1364.0334898176775 0 0 0
4356 291 6 -0.5 -2009.2852085731674 1074.8250487796863 -1389.71098076943 0 0 0
4481 299 11 1 -2006.8754054747474 1081.487033509852 -1400.3521520650693 0 0 0
2401 161 1 0 -2323.374206961403 1191.9914459615086 -1387.646965055845 0 -1 0
4264 285 4 0 -294.9923569389435 1187.9795490598315 -1381.984207341656 0 0 0
2408 161 8 0 -2289.255400232842 1257.6605758583767 -1365.3037293966568 0 -1 0
2405 161 5 0 -2275.8293646019456 1314.8092580122639 -1393.655133218162 0 -1 0
2407 161 7 2 -2306.7065901363353 1491.4608612916643 -1371.7599214851998 0 -1 0
2410 161 10 1 -2291.0888854491795 1448.9192471908323 -1413.6192441373676 0 -1 0
2411 161 11 1 -2320.9625765478263 -1478.4016118184102 -1330.0708849334496 0 0 0
2409 161 9 0 -2319.985797601846 -1432.6933577557809 -1280.577398758056 0 0 0
2552 171 2 0 -935.7710797702097 -1362.969682935699 -1340.1935463602233 0 0 1
2565 171 15 0 -944.5602029631784 -1283.8181936359758 -1343.3316088895479 0 0 1
2559 171 9 0 -987.6225360351256 -1234.715219754013 -1340.761670233179 0 0 1
2556 171 6 -0.5 -942.097763509397 -1236.0321674627728 -1313.2656527287052 0 0 1
2564 171 14 -1.5 -898.8506860738061 -1247.1316210269795 -1315.895576004942 0 0 1
3778 252 13 -0.5 -1896.852767776834 -1195.6758534452704 -1292.7745999059084 0 0 0
3768 252 3 -1.5 -1857.936216029539 -1190.178690428987 -1309.6321941121719 0 0 0
5521 369 1 0 -2559.999187362695 -601.6027876352567 -1287.698804854488 0 0 0
5528 369 8 0 -2619.2166375181764 -571.282210720307 -1317.2268437442478 0 0 0
916 62 1 0 -850.3247670205092 -567.3934529320835 -1333.5931808046666 0 0 0
5525 369 5 0 -2632.4989043144315 -490.9671307824041 -1318.1214876092629 0 0 0
1807 121 7 2 -2676.087366482481 -433.1498795896669 -1345.3460639679186 0 0 0
5523 369 3 -1.5 -2671.3823265587384 -395.4322164510269 -1328.5232525158858 0 0 0
5532 369 12 0 -2666.244365302136 -417.6101464598335 -1286.0410509117455 0 0 0
1810 121 10 1 -2667.797038433037 -376.95958706571525 -1319.056752712037 0 0 0
970 65 10 1 -2634.128758043542 -334.60009027641746 -1346.9825764597042 0 0 0
1812 121 12 0 -2655.222091491958 -322.6454862469801 -1305.0135232282496 0 0 0
967 65 7 2 -2582.7207314181655 -309.5887629173422 -1323.2287277334367 0 0 0
2938 196 13 -0.5 -2615.6584343597738 -301.75954258170003 -1300.9770635363402 0 0 0
1808 121 8 0 -2785.3059105310335 -278.60258159241874 -1347.3348169052408 0 0 0
1805 121 5 0 -2717.3378312789728 -283.81153155334687 -1322.236366970657 0 0 0
1803 121 3 -1.5 -2623.1728021951913 -284.97989177545566 -1307.5421622838237 0 0 0
1813 121 13 -0.5 -2594.69530719879 -271.9097461478168 -1336.7513835210798 0 0 0
2928 196 3 -1.5 -2589.1110450032593 -277.8832425580523 -1325.0421083687072 0 0 0
2937 196 12 0 -2568.6340883931066 -234.3632251009582 -1321.0536671588368 0 0 0
971 65 11 1 -2542.052987009863 -278.41360196457384 -1305.9130103667724 0 0 0
969 65 9 0 -2495.372500576594 -231.89800463154268 -1295.6721839828929 0 0 0
2935 196 10 1 -2518.413112058778 -197.31782314997628 -1314.906183472033 0 0 0
2932 196 7 2 -2475.3002724302373 -157.59586558978788 -1296.1942041924983 0 0 0
975 65 15 0 -2522.4619914708587 -155.71966477448285 -1280.1748060068414 0 0 0
966 65 6 -0.5 -2457.8550492611344 -193.1164235839793 -1302.0360322826832 0 0 0
974 65 14 -1.5 -2438.5681692193766 -157.66325734342482 -1283.317335379843 0 0 0
658 44 13 -0.5 -195.3788812300822 -153.15344306969124 -1277.8084563340897 0 0 0
2936 196 11 1 -2440.783123627983 -119.00290126238495 -1283.5588232687699 0 0 0
2931 196 6 -0.5 -2350.1829176851456 -40.80799484536597 -1286.5361214696143 0 0 0
2934 196 9 0 -2398.86683890261 -66.58087551925344 -1279.2050791139068 0 0 0
2939 196 14 -1.5 -2307.8728526251552 -38.23878482466584 -1300.3320531761465 0 0 0
1713 115 3 -1.5 -659.4998198265091 303.13425946107935 -1322.4982707310094 0 0 0
1722 115 12 0 -613.7623214805413 318.2518591344115 -1313.478915042018 0 0 0
1056 71 6 -0.5 -551.6086904292576 368.26036312952414 -1327.805951912003 0 0 0
1720 115 10 1 -571.0113998502047 368.6184472557863 -1315.3020609206885 0 0 0
1717 115 7 2 -529.2447561888911 412.6820975634757 -1320.4527373082778 0 0 0
1064 71 14 -1.5 -508.7274659303379 379.21013030831995 -1327.1317695905182 0 0 0
4922 329 2 0 -1850.1295913647182 478.15394776802344 -1280.4094396863902 0 0 0
1422 95 12 0 -1657.9131826674975 500.0669783628644 -1312.7152710230118 0 0 0
1413 95 3 -1.5 -1645.6508761828657 457.40324137239406 -1323.2367720457523 0 0 0
1721 115 11 1 -494.8011605953438 453.4494596209928 -1323.6490402195348 0 0 0
1719 115 9 0 -441.19125104543684 492.939549518959 -1333.3697642190943 0 0 0
1725 115 15 0 -394.52335281115035 524.0594185305289 -1290.8140877258818 0 0 0
4935 329 15 0 -1852.8861789420562 528.5101932199319 -1342.9332683574721 0 0 0
4934 329 14 -1.5 -1827.8080944059545 591.5143174824174 -1322.7409047220324 0 0 0
1420 95 10 1 -1697.728491558218 548.6483278119088 -1297.5968107445474 0 0 0
1415 95 5 0 -1606.2317274925663 525.0014416059352 -1329.34796462376 0 0 0
1417 95 7 2 -1723.2661637092426 602.3981187229424 -1280.9819829111984 0 0 0
1425 95 15 0 -1785.1223061252374 751.3635784215288 -1278.9583186443779 0 0 0
1412 95 2 0 -1768.366512755583 794.3499716656469 -1327.884809895807 0 0 0
4245 283 15 0 -2009.876970188945 1045.0270049221992 -1314.5302863934644 0 0 0
4232 283 2 0 -1968.421012551572 992.0696134132725 -1336.1623192525103 0 0 0
4239 283 9 0 -2046.7574043524487 1098.032710743213 -1320.0805276584454 0 0 0
4479 299 9 0 -1990.6496482407179 1100.251840013779 -1339.6552035227146 0 0 0
4485 299 15 0 -1989.4121230631076 1074.9742401609053 -1280.3355294968414 0 0 0
4361 291 11 1 -2058.2001685894306 1149.8484447099972 -1312.6302612725144 0 0 0
4476 299 6 -0.5 -1970.3746502333122 1125.2387401270644 -1297.5141204668898 0 0 0
4484 299 14 -1.5 -1938.1253783938732 1149.848816399789 -1279.0401355664858 0 0 0
4275 285 15 0 -323.68904735178404 1265.1379576361394 -1280.6160944802382 0 0 0
4262 285 2 0 -296.78681235590494 1225.0685086428787 -1338.6825511031423 0 0 0
4261 285 1 0 -689.3831599593531 1297.2494155813438 -1317.78287427171 0 0 0
3617 242 2 0 -35.383323146177126 1451.4694375583435 -1292.0406913925553 0 -1 0
2415 161 15 0 -2356.511491962194 -1378.989432870674 -1254.6894425759788 0 0 0
2406 161 6 -0.5 -2304.6559812242003 -1389.292502532691 -1250.3114294161996 0 0 0
2414 161 14 -1.5 -2313.2327911260536 -1351.4065671233343 -1229.3494835016106 0 0 0
2404 161 4 0 -2472.7007983657286 -1275.1148272869218 -1225.5577467272524 0 0 0
2402 161 2 0 -2430.5000719700347 -1323.5260868714383 -1256.521517067235 0 0 0
3856 258 1 0 -458.73152517959136 -1254.1996120656736 -1205.5925269455631 0 0 0
923 62 8 0 -834.5746204310143 -570.1675942545335 -1268.6388600367338 0 0 0
254 17 14 -1.5 -914.885245615735 -466.70193080210265 -1216.9921918500904 0 0 0
920 62 5 0 -837.6793155709274 -516.185829649449 -1208.7620828922434 0 0 0
5530 369 10 1 -2655.5985829689907 -419.7060793239921 -1220.7210832683597 0 0 0
646 44 1 0 -203.07423028649993 -385.55836920645856 -1217.8960709304447 0 0 0
653 44 8 0 -168.01685252251374 -319.0745626379928 -1237.4302563618032 0 0 0
650 44 5 0 -196.16482221943892 -235.50699233039813 -1217.5840895910528 0 0 0
962 65 2 0 -2520.9846409839297 -108.55544561712495 -1263.2036128600043 0 0 0
648 44 3 -1.5 -208.74530170152235 -147.24457822750443 -1237.3753996650375 0 0 0
964 65 4 0 -2534.1048852189765 -53.78199333709534 -1262.5661316670976 0 0 0
2940 196 15 0 -2352.175164792921 -46.046955082673044 -1205.562472455564 0 0 0
1715 115 5 0 -634.0497157284735 305.8176968218265 -1235.8755709352597 0 0 0
4924 329 4 0 -1870.4912555326835 443.67101047705313 -1231.9692863558828 0 0 0
3016 202 1 0 -808.809774384731 444.38784737861954 -1229.0156789737507 0 0 0
3019 202 4 0 -458.6140662022911 510.37323308279895 -1226.3087133551476 0 0 0
1712 115 2 0 -354.09845840980836 569.7140261334436 -1242.404594622154 0 0 0
1714 115 4 0 -297.3042695259411 595.6370350386597 -1212.8871285205016 0 0 0
1421 95 11 1 -1751.9664393764783 643.6721394922212 -1260.5684328317893 0 0 0
1419 95 9 0 -1783.4361830094263 702.2181079507607 -1253.2355750750714 0 0 0
1424 95 14 -1.5 -1799.53669623649 781.469744016211 -1201.5214684146297 0 0 0
1416 95 6 -0.5 -1789.8545147645239 752.0667369163037 -1233.01241492646 0 0 0
4472 299 2 0 -1994.902450001226 1034.160539342722 -1224.2450381350814 0 0 0
4241 283 11 1 -2070.1819675530946 1133.0757801449722 -1272.0189894214393 0 0 0
4357 291 7 2 -2064.205966807681 1177.4833451479738 -1266.7042630691994 0 0 0
4237 283 7 2 -2081.379350565012 1156.3710783112701 -1225.2838956947617 0 0 0
4360 291 10 1 -2079.1940912058 1206.9862493887058 -1214.6211821181362 0 0 0
4266 285 6 -0.5 -289.7775360847796 1258.028950122183 -1218.773593844993 0 0 0
4268 285 8 0 -665.6989908729356 1313.16026165909 -1238.674792447442 0 0 0
5376 359 6 -0.5 -326.1784599263069 1291.363583878857 -1227.1342925531972 0 0 0
5384 359 14 -1.5 -298.4532297071993 1321.3097683745464 -1244.4872494379258 0 0 0
4274 285 14 -1.5 -267.0154770915082 1280.6814479921018 -1249.1948217859162 0 0 0
3630 242 15 0 -87.86231619476361 1447.9748930120911 -1224.3872495866426 0 -1 0
3626 242 11 1 -171.60338674092762 -1459.296375693791 -1152.8993867943693 0 0 0
3622 242 7 2 -214.09936956397854 -1425.6808699487715 -1153.6537563549955 0 0 0
3627 242 12 0 -322.4776246228817 -1362.6454583614122 -1149.7235647416196 0 0 0
3625 242 10 1 -264.9551326951297 -1390.8930246016894 -1155.3043947761248 0 0 0
3863 258 8 0 -466.58010307856324 -1301.1898754551903 -1174.7396044629847 0 0 0
3860 258 5 0 -407.8812951861985 -1342.7046470457697 -1149.7461017356447 0 0 0
3628 242 13 -0.5 -376.0258896303109 -1304.784996382558 -1176.4674459721093 0 0 0
3618 242 3 -1.5 -352.41176067579573 -1323.5317583817155 -1145.8521424002688 0 0 0
1606 108 1 0 -1545.2310142356712 -611.7949839960681 -1126.1196950574026 0 0 0
1613 108 8 0 -1506.0662343033262 -651.3757566547889 -1129.4173959537952 0 0 0
2656 178 1 0 -269.6856966080221 -624.3452451732347 -1197.2882396087623 0 0 0
2663 178 8 0 -204.20012571325 -653.9702507920317 -1142.0018142263687 0 0 0
1614 108 9 0 -1186.1084559059145 -544.2881158868554 -1127.4904659238443 0 0 0
251 17 11 1 -1037.117866164245 -533.4454646007055 -1143.662056839775 0 0 0
255 17 15 0 -929.2437390578023 -534.1120065622976 -1166.3179688230803 0 0 0
1611 108 6 -0.5 -1143.4591009139942 -513.6430171701194 -1137.6770182238733 0 0 0
1620 108 15 0 -1192.400525393251 -485.67212187975673 -1127.183950532074 0 0 0
1619 108 14 -1.5 -1101.4864375415777 -502.49560165845315 -1130.1240696286018 0 0 0
249 17 9 0 -978.4739611848566 -511.43464494985636 -1163.3589273681573 0 0 0
246 17 6 -0.5 -940.52489041458 -481.46251852749657 -1183.5828144292984 0 0 0
928 62 13 -0.5 -926.5569928169948 -484.0304274569204 -1135.5422062289863 0 0 0
918 62 3 -1.5 -899.4025776052382 -477.3277294652927 -1168.375598514694 0 0 0
242 17 2 0 -848.7313910378795 -516.7851422949605 -1154.296984404284 0 0 0
927 62 12 0 -852.4569223503785 -460.93351369118454 -1168.9037178485398 0 0 0
244 17 4 0 -791.401588354644 -520.4465757246081 -1138.380316361428 0 0 0
5527 369 7 2 -2650.9007696338576 -425.85827002459325 -1160.0036471879414 0 0 0
248 17 8 0 -1282.1182043048505 -383.18798862408306 -1131.1180159425178 0 0 0
1607 108 2 0 -1206.6307653816928 -412.40906628008014 -1151.5799080192799 0 0 0
925 62 10 1 -799.8391190604008 -444.17473966666694 -1141.369749707089 0 0 0
241 17 1 0 -1294.8675608823303 -318.6673065536589 -1153.7545322847855 0 0 0
1609 108 4 0 -1216.9527465947808 -359.27002604975985 -1138.2545667599416 0 0 0
3121 209 1 0 -1281.455518173648 -186.91347071309355 -1153.4684470023947 0 0 0
655 44 10 1 -165.7728313449236 -161.36315889442102 -1136.1820435511254 0 0 0
657 44 12 0 -197.095173752341 -166.95092418328778 -1192.4153338592073 0 0 0
3128 209 8 0 -1250.5324335431942 -132.30584289829494 -1166.9914858320535 0 0 0
1718 115 8 0 -615.4413630350689 261.07651881844487 -1170.997110074331 0 0 0
1711 115 1 0 -646.2519862727687 234.79224014546662 -1128.2973204794516 0 0 0
3020 202 5 0 -788.4909393317375 332.71717184356845 -1135.446601287247 0 0 0
3023 202 8 0 -783.2536825254839 382.84826413361884 -1189.0386783619415 0 0 0
3030 202 15 0 -516.0662906091363 474.4265702607712 -1157.3316817042173 0 0 0
3017 202 2 0 -469.47758908519216 497.4135550048373 -1178.7668653596538 0 0 0
5162 345 2 0 -2100.3891343087466 971.5292335342259 -1146.0141654154816 0 0 0
5164 345 4 0 -2098.1260739344457 1018.0812556301335 -1184.3056556598856 0 0 0
4474 299 4 0 -1984.6716020063473 994.7823474399676 -1187.4886603444238 0 0 0
5626 376 1 0 -990.2896196196629 1061.7870527059351 -1196.95385312046 0 0 0
5633 376 8 0 -1003.7102737031042 1086.5656208120902 -1133.2357190252412 0 0 0
4351 291 1 0 -2310.2928186949794 1189.6933060447823 -1168.5813790577483 0 0 0
4358 291 8 0 -2247.1159477989245 1182.1716778368257 -1145.456478319922 0 0 0
4240 283 10 1 -2082.0780394884127 1189.476531954042 -1173.427591427811 0 0 0
4177 279 7 2 -681.1651479321257 1175.1039311590994 -1139.9151229769336 0 0 0
4181 279 11 1 -636.5423632633228 1198.0134962987838 -1159.625468099152 0 0 0
4897 327 7 2 -642.3512189667426 1172.8649514909264 -1125.5618907836267 0 0 0
4172 279 2 0 -441.9327341290848 1199.7656567624138 -1188.4009030370207 0 0 0
4355 291 5 0 -2185.4142055196185 1228.5466580332177 -1161.9161794456493 0 0 0
4362 291 12 0 -2096.88978918679 1241.4299104926674 -1162.2743950338108 0 0 0
5382 359 12 0 -612.5278249700357 1257.9587070327625 -1134.0094840244553 0 0 0
5373 359 3 -1.5 -652.6744394118109 1232.3100176982462 -1136.4639239198998 0 0 0
4901 327 11 1 -599.4224782189378 1201.6850976846856 -1140.858639792906 0 0 0
4179 279 9 0 -583.3518957745315 1236.3576940939147 -1173.037018178737 0 0 0
4899 327 9 0 -539.1390886447971 1221.2483859151364 -1155.052644964307 0 0 0
5380 359 10 1 -551.3966548899681 1268.207501801005 -1154.0133400621523 0 0 0
4176 279 6 -0.5 -539.4749459098551 1268.102640950802 -1166.8047448704947 0 0 0
4185 279 15 0 -512.5349072041734 1209.600346545463 -1195.8806642878533 0 0 0
4896 327 6 -0.5 -498.09444266144214 1252.129707833163 -1175.3873965830462 0 0 0
5377 359 7 2 -490.5623455482015 1265.7163981490937 -1167.3656853679313 0 0 0
4904 327 14 -1.5 -455.0712220453684 1256.4578668180648 -1184.7479627273951 0 0 0
4270 285 10 1 -505.0068366744205 1245.295825127347 -1126.712752864333 0 0 0
4267 285 7 2 -446.71440834644443 1256.2635426702566 -1142.3356227171932 0 0 0
4174 279 4 0 -388.112626674371 1215.4295246726479 -1198.5412607628507 0 0 0
4271 285 11 1 -395.88117210905574 1261.095636804027 -1160.2146686089275 0 0 0
5381 359 11 1 -437.89000024258814 1267.07925926225 -1181.6476190744274 0 0 0
4269 285 9 0 -336.9249906642939 1249.7829057879142 -1188.7926407608481 0 0 0
4235 283 5 0 -2119.6183689376835 1288.2451956355542 -1136.3555026863492 0 0 0
4265 285 5 0 -626.8509492284098 1295.6952310725671 -1172.2957180151705 0 0 0
4184 279 14 -1.5 -508.9686185499129 1294.9683396853807 -1185.5727319563491 0 0 0
5379 359 9 0 -373.8395750961701 1281.4982763261473 -1197.8735849812913 0 0 0
5385 359 15 0 -331.9657715930029 1307.9088160114297 -1179.5819008780722 0 0 0
5372 359 2 0 -291.67594384656553 1354.5744448829525 -1156.5487176348881 0 0 0
5374 359 4 0 -240.72817158869978 1398.1052024987198 -1155.7908901373335 0 0 0
4231 283 1 0 -2192.2074613081545 1431.1904329691904 -1143.953602899054 0 0 0
3624 242 9 0 -132.511882390951 1487.6226083375786 -1150.9278353633742 0 -1 0
3621 242 6 -0.5 -88.75593388212826 1459.22054648953 -1145.2933634501376 0 -1 0
3623 242 8 0 -449.32167394702395 -1441.5180358298355 -1074.4208542160181 0 0 0
3620 242 5 0 -393.33401878335053 -1430.5712039169885 -1094.3764036772207 0 0 0
3858 258 3 -1.5 -298.88591439791253 -1370.4077249575732 -1113.621892658765 0 0 0
3868 258 13 -0.5 -256.54481266133973 -1371.8077470646626 -1113.346169441271 0 0 0
3867 258 12 0 -330.35786023873027 -1348.764844638496 -1084.0796507940415 0 0 0
3751 251 1 0 -584.2763965296602 -901.0629159599368 -1060.753183401704 0 0 0
2658 178 3 -1.5 -153.8148699669229 -843.0653093995496 -1073.5476238536405 0 0 0
1618 108 13 -0.5 -1371.036300282298 -794.4161412480836 -1058.7453352857792 0 0 0
2667 178 12 0 -117.57681959685831 -815.3954841985978 -1095.0186063265637 0 0 0
2665 178 10 1 -56.59877522306777 -802.451873314776 -1100.804714996739 0 0 0
1610 108 5 0 -1447.984610828322 -676.3319040057121 -1083.081015859024 0 0 0
1617 108 12 0 -1340.968458507782 -716.3924283800907 -1056.9385413150226 0 0 0
2660 178 5 0 -177.3507906427147 -715.570978706562 -1107.235512770115 0 0 0
1313 88 8 0 -109.14967317518494 -733.8896665006117 -1075.3072733229592 0 0 0
1615 108 10 1 -1299.719154492806 -669.7448012824949 -1074.1416100515341 0 0 0
1612 108 7 2 -1255.623311594317 -629.8810958750234 -1087.0941007155254 0 0 0
1306 88 1 0 -109.95305313434469 -662.6898816254204 -1084.0140665971599 0 0 0
253 17 13 -0.5 -1276.425673362142 -594.7555423216467 -1090.9129845924588 0 0 0
1616 108 11 1 -1217.4385312952884 -595.0054857378852 -1101.738552264473 0 0 0
243 17 3 -1.5 -1244.7033256292743 -576.8575093979633 -1068.7548970219066 0 0 0
252 17 12 0 -1200.9482076321235 -554.9671103176089 -1082.3669640113342 0 0 0
250 17 10 1 -1145.393432217985 -550.1421209187723 -1105.2819508106381 0 0 0
247 17 7 2 -1086.8153085416159 -540.3026422663389 -1124.6590232888293 0 0 0
245 17 5 0 -1244.2914113622069 -454.0111024044439 -1092.639070834586 0 0 0
5531 369 11 1 -2644.9440044116704 -441.2971833643105 -1108.3406048387094 0 0 0
922 62 7 2 -754.1834621890457 -422.96655331990837 -1104.4750978190457 0 0 0
3388 226 13 -0.5 -751.5905392531412 -394.59888873481833 -1075.7073171914892 0 0 0
3378 226 3 -1.5 -711.8145460765315 -394.9086838623361 -1058.8894465605974 0 0 0
926 62 11 1 -710.9589701652175 -409.3563847079026 -1073.0163670128056 0 0 0
3122 209 2 0 -895.9815737110266 -230.78261965061145 -1080.7529712183195 0 0 0
3383 226 8 0 -796.9004193353925 -240.3798556869727 -1076.6732248451513 0 0 0
3380 226 5 0 -754.9090645878364 -282.60996593355367 -1068.0244629970787 0 0 0
3135 209 15 0 -955.4507063301127 -221.25288098570442 -1050.4293485886342 0 0 0
3124 209 4 0 -841.2069164602317 -220.88400208894228 -1094.3430329208693 0 0 0
3376 226 1 0 -841.8521892808379 -216.82126782533052 -1056.4713777331842 0 0 0
5438 363 8 0 -558.885654328946 -223.6506720669173 -1062.217576098202 0 0 0
5431 363 1 0 -555.9657218163261 -168.72060575498034 -1063.0761489223917 0 0 0
652 44 7 2 -140.80305629030053 -161.52394617906003 -1080.4910200810195 0 0 0
3125 209 5 0 -1228.8429865236756 -81.02519332053528 -1083.2810466502326 0 0 0
2927 196 2 0 -2335.072176955263 -29.94329303174238 -1123.3804141511482 0 0 0
2929 196 4 0 -2326.5814836800705 8.469957635576206 -1081.392937341799 0 0 0
1291 87 1 0 -1177.73395384622 153.10648841587448 -1058.3424190902033 0 0 0
1292 87 2 0 -784.4175443536265 296.8867473909092 -1055.6915759070175 0 0 0
1294 87 4 0 -755.1294248783515 293.33782151466403 -1103.4593829603082 0 0 0
3022 202 7 2 -636.4209357625069 387.7657049207894 -1061.6035673089298 0 0 0
2399 160 14 -1.5 -602.7681836528279 409.3965445195005 -1053.1064348535533 0 0 0
3026 202 11 1 -592.2566832976181 410.9195750089357 -1083.2520464296267 0 0 0
3024 202 9 0 -536.1569592012843 445.64124514700075 -1094.2924415157402 0 0 0
3029 202 14 -1.5 -439.9784467576596 447.9987406791521 -1089.5530771800334 0 0 0
2387 160 2 0 -596.1600438248505 501.7340104521795 -1064.4711090411975 0 0 0
2389 160 4 0 -597.7046721215582 522.9274657943367 -1114.9526903863068 0 0 0
3021 202 6 -0.5 -482.40017196205486 455.4269572203374 -1100.2875261322683 0 0 0
5168 345 8 0 -1887.340453731429 578.9653048609146 -1065.2351888558721 0 0 0
3061 205 1 0 -2810.207135260286 714.080532029353 -1052.5891209436081 0 0 0
4653 311 3 -1.5 -1143.0492156500172 726.0978081485061 -1062.3119564884248 0 0 0
4663 311 13 -0.5 -1118.1013821042802 718.018443452854 -1096.6781799248363 0 0 0
4083 273 3 -1.5 -1051.6188105671583 888.8865609459954 -1059.3176182072384 0 0 0
5175 345 15 0 -2045.1001924846128 906.8838912838311 -1088.5880848645288 0 0 0
5166 345 6 -0.5 -1997.7225058562665 919.6301548482885 -1054.337120350803 0 0 0
4066 272 1 0 -2733.5697973774622 1013.4985217097727 -1087.6869460286468 0 0 0
4073 272 8 0 -2688.2842338616565 997.8592682141873 -1078.6059437606768 0 0 0
4665 311 15 0 -955.8016914519869 990.4411113229066 -1072.006121226232 0 0 0
4652 311 2 0 -896.9992349784281 1043.0825835683218 -1098.3517592710296 0 0 0
5630 376 5 0 -963.0220329976969 1089.8465593704243 -1055.2772032437813 0 0 0
4173 279 3 -1.5 -829.498925041411 1119.2678527761454 -1087.7354605216362 0 0 0
4903 327 13 -0.5 -831.0519111903628 1110.7601938980008 -1078.036492961994 0 0 0
4654 311 4 0 -835.7798514537874 1072.4097580873083 -1099.2630785700383 0 0 0
4086 273 6 -0.5 -785.8024318031371 1101.3364483238488 -1058.848146182424 0 0 0
4893 327 3 -1.5 -796.4414709694619 1097.5871905656038 -1099.565033813832 0 0 0
4089 273 9 0 -822.9137072825538 1062.1015102257486 -1054.5669067263607 0 0 0
4902 327 12 0 -745.0487886898591 1107.711176375746 -1089.6219868478863 0 0 0
2176 146 1 0 -839.7433783371313 1156.7202919666893 -1071.016865228599 0 0 0
5632 376 7 2 -804.6311284392629 1130.6425224046388 -1057.0608685545826 0 0 0
4182 279 12 0 -797.5628292555332 1145.5799967090672 -1106.87617973611 0 0 0
5636 376 11 1 -758.7823824328472 1153.4665608388582 -1075.1391390879883 0 0 0
4180 279 10 1 -736.9538713675839 1155.160520565557 -1120.6631714104751 0 0 0
4900 327 10 1 -690.7188801557378 1136.5769329795005 -1113.4375525083622 0 0 0
5634 376 9 0 -695.576214549315 1175.1374433547667 -1084.109729801428 0 0 0
5631 376 6 -0.5 -656.1583565847649 1199.0951728935302 -1104.2474651901587 0 0 0
5639 376 14 -1.5 -613.3014516883042 1197.832219760465 -1115.7826208080576 0 0 0
4353 291 3 -1.5 -2084.4468218561324 1264.7075156534797 -1119.1510759404684 0 0 0
4242 283 12 0 -2090.8695231658144 1213.3959110951453 -1119.5175331600108 0 0 0
4233 283 3 -1.5 -2077.2011070329118 1241.6047055939514 -1078.1371187984532 0 0 0
4175 279 5 0 -828.0277850065087 1216.0131272037186 -1073.9619759745458 0 0 0
5383 359 13 -0.5 -665.121635478537 1201.437348631051 -1110.259912186592 0 0 0
4273 285 13 -0.5 -648.6373810671546 1209.4310709529223 -1113.603822451922 0 0 0
4263 285 3 -1.5 -606.0006068240157 1200.1497227279458 -1115.603142688583 0 0 0
5640 376 15 0 -660.7433819453885 1225.37005240466 -1061.947090015982 0 0 0
4272 285 12 0 -569.0325793944022 1233.946436677171 -1115.840695501204 0 0 0
4243 283 13 -0.5 -2056.839909456857 1278.9065074660089 -1075.587222795305 0 0 0
4363 291 13 -0.5 -2065.6345295142187 1302.2982881420248 -1112.0477650342857 0 0 0
4178 279 8 0 -854.4477668753934 1308.0313503245895 -1077.8457025395753 0 0 0
4171 279 1 0 -820.564612374614 1348.0005214036426 -1091.0819613146134 0 0 0
5375 359 5 0 -631.720708834167 1315.321150088587 -1076.2963412651181 0 0 0
4905 327 15 0 -505.6383659860815 1289.7670913766751 -1116.21866694778 0 0 0
4892 327 2 0 -454.967695848029 1331.7195463719704 -1120.7425863998403 0 0 0
4238 283 8 0 -2125.9288957827275 1365.4293490666628 -1121.3871847531889 0 0 0
4894 327 4 0 -428.4825515101365 1385.039243388546 -1112.6187063170566 0 0 0
3629 242 14 -1.5 -50.20628336999174 1455.0951074081875 -1123.9673066947848 0 -1 0
3616 242 1 0 -494.48144233653284 -1463.6868204440352 -1039.8247413275524 0 0 0
3865 258 10 1 -356.7066908529167 -1343.8245633785896 -1023.5417753473255 0 0 0