LAMMPS data file via write_data, version 27 Jun 2024, timestep = 20800000, units = real

5730 atoms
15 atom types
5591 bonds
16 bond types
5730 angles
15 angle types

-3000 3000 xlo xhi
-1500 1500 ylo yhi
-1500 1500 zlo zhi

Masses

1 241.19
2 73.54000000000001
3 330.71
4 235.16
5 68.06999999999999
6 353.53
7 223.38
8 41.1
9 216.91
10 155.15
11 147.32
12 264.65
13 300.8
14 326.05
15 85.20999999999999

Pair Coeffs # lj/cut/coul/debye/gpu

1 0.71637 40.7505
2 0.665709 48.1397
3 1.15033 39.2216
4 0.726774 43.8077
5 0.514724 53.3428
6 1.17127 41.7847
7 1.2256 38.5601
8 0.675431 54.5696
9 1.26117 43.78
10 0.939007 42.5209
11 0.960667 41.1825
12 1.30988 48.0761
13 1.36645 37.7114
14 1.35529 39.2179
15 0.592003 47.2602

Bond Coeffs # harmonic

1 0.003 59.228
2 0.008 56.48
3 0.001 69.324
4 3.207 42.88
5 0.11 49.807
6 0.002 74.968
7 0.001 91.635
8 0.145 54.383
9 2.709 44.406
10 1.71 61.679
11 1.625 54.051
12 0.207 66.185
13 0.002 64.76
14 0.079 63.886
15 0.2 40
16 0.2 40

Angle Coeffs # harmonic

1 11.427 158.273
2 50.464 132.042
3 8.207 156.514
4 92.705 149.394
5 100 174.44
6 3.15 145.53
7 48.938 159.031
8 17.401 129.945
9 15.735 56.441
10 60 172.254
11 60.285 168.396
12 11.83 99.091
13 150 107.995
14 27.746 149.925
15 7.483 160.775

Atoms # full

2410 161 10 1 -2257.9737536390967 -1465.7434429687685 -1447.0346772528076 0 0 0
2560 171 10 1 -1222.525875231763 -1278.348469140828 -1433.464534269984 0 0 1
2557 171 7 2 -1174.2016563996658 -1294.5950657917124 -1468.4677720026987 0 0 1
3779 252 14 -1.5 -1580.9756628445805 -1236.7802151231235 -1431.4927583614103 0 0 0
2555 171 5 0 -1295.7637675910514 -1219.9402200724749 -1427.3473110120535 0 0 1
2558 171 8 0 -1323.950266093966 -1179.4615064467969 -1473.0664150208754 0 0 1
5704 381 4 0 -378.32927337311787 -521.1985782924231 -1463.162208711215 0 0 1
962 65 2 0 -2351.8016314837555 -249.46733077288067 -1432.3797839093838 0 0 0
964 65 4 0 -2299.1471304549164 -237.4854987840427 -1452.6757666145743 0 0 0
2586 173 6 -0.5 -1654.9911413187774 -236.0086592901894 -1449.1210585773138 0 0 1
1069 72 4 0 -313.45288033421303 -290.62106587046475 -1442.4113298336258 0 0 1
1067 72 2 0 -332.00124491141105 -268.46033690040366 -1490.1872415186476 0 0 1
2595 173 15 0 -1676.1134136842716 -184.13040013061453 -1430.4417130388515 0 0 1
2589 173 9 0 -1650.669462201515 -209.27943847451502 -1497.3116268362794 0 0 1
4930 329 10 1 -1846.523866134463 602.3735492422529 -1493.8470451411808 0 0 0
4927 329 7 2 -1851.7924708058417 603.2788982758881 -1432.6292132546157 0 0 0
4480 299 10 1 -2042.7623113889372 1067.7197431561517 -1483.160050981359 0 0 0
4477 299 7 2 -2024.7197115238034 1086.442632414141 -1426.960482591434 0 0 0
4234 283 4 0 -1880.731924159691 1076.1320796541238 -1430.910289444835 0 0 0
4365 291 15 0 -2014.1261234562285 1149.5471201912226 -1433.7341714507927 0 0 0
2407 161 7 2 -2262.222296467876 -1475.34453452411 -1386.4344155040733 0 0 0
3769 252 4 0 -1662.648188789404 -1404.9300413399644 -1399.0821587028527 0 0 0
3767 252 2 0 -1632.1994465292007 -1359.6731723480545 -1394.823144596125 0 0 0
3780 252 15 0 -1627.0839256792735 -1300.6235530587248 -1405.3841060813222 0 0 0
3776 252 11 1 -1732.5121154900212 -1247.14401213612 -1369.325093831734 0 0 0
3772 252 7 2 -1783.363288536634 -1247.5456985333499 -1352.3283200018582 0 0 0
3774 252 9 0 -1672.8319708504873 -1241.88541086632 -1400.717347946557 0 0 0
3771 252 6 -0.5 -1618.968323344189 -1247.8394233291986 -1411.3819336745632 0 0 0
2563 171 13 -0.5 -1341.489392452887 -1239.4514089725715 -1355.9397041697284 0 0 1
2553 171 3 -1.5 -1311.9719281026098 -1266.6401892384233 -1370.429930400094 0 0 1
2562 171 12 0 -1277.6976837498387 -1264.124569658264 -1407.2238327158705 0 0 1
1804 121 4 0 -2692.700762437711 -753.4440816158643 -1421.4403369356348 0 0 0
1802 121 2 0 -2654.376128605083 -727.2837113725268 -1397.9531862950432 0 0 0
1815 121 15 0 -2612.976001169498 -682.0386675783368 -1363.2604809608472 0 0 0
1814 121 14 -1.5 -2575.311734228864 -727.5177315561824 -1368.2818605431764 0 0 0
1609 108 4 0 -1058.8626890661922 -637.7555422702511 -1351.4049947951453 0 0 0
1810 121 10 1 -2578.9542506514704 -456.74233395917065 -1366.2998940581238 0 0 0
1807 121 7 2 -2576.668792354113 -517.140861241999 -1350.0607909262742 0 0 0
2933 196 8 0 -2493.6749614470073 -475.9824712985384 -1413.4281397992409 0 0 0
2926 196 1 0 -2484.583071629502 -517.2628248070807 -1410.4882025802206 0 0 0
248 17 8 0 -1311.4782679815119 -485.6148970790894 -1361.1871866711517 0 0 0
916 62 1 0 -990.0065296746417 -514.1379003317526 -1355.3511815078123 0 0 0
963 65 3 -1.5 -2740.91421999555 -383.4267241058128 -1387.8355826940754 0 0 0
1812 121 12 0 -2581.7535247169153 -394.4180346923564 -1373.2755458878328 0 0 0
2930 196 5 0 -2525.527827503231 -416.23300809834245 -1408.2578168799355 0 0 0
241 17 1 0 -1342.5921994651756 -418.88417993075655 -1366.8384220347725 0 0 0
973 65 13 -0.5 -2774.814520753698 -370.5711511182735 -1410.0237604130436 0 0 0
972 65 12 0 -2705.3048764519945 -355.4042723619743 -1361.4060509609967 0 0 0
970 65 10 1 -2647.371234855535 -321.92989352346206 -1358.6448154863908 0 0 0
1813 121 13 -0.5 -2569.2174667743448 -312.52235312756426 -1381.6183610574287 0 0 0
1803 121 3 -1.5 -2556.321199447737 -353.40701344610807 -1375.7839275070867 0 0 0
2928 196 3 -1.5 -2566.476412511399 -311.81474328831797 -1359.265494310042 0 0 0
2938 196 13 -0.5 -2604.259529361724 -332.7523476887087 -1361.2622611169993 0 0 0
2937 196 12 0 -2521.7035404326975 -313.90673552843725 -1373.5233259203362 0 0 0
967 65 7 2 -2590.7288017821647 -296.4210046511836 -1354.2269824533844 0 0 0
969 65 9 0 -2476.224658607079 -259.1870807311616 -1351.293306517354 0 0 0
2935 196 10 1 -2458.9020638093693 -296.6163657722677 -1374.6377443672538 0 0 0
2932 196 7 2 -2400.1317599814897 -276.21316928575027 -1374.2254804408983 0 0 0
975 65 15 0 -2437.544366355793 -250.8522601763037 -1391.3100235441243 0 0 0
2936 196 11 1 -2353.4713602922343 -249.95264637893467 -1375.5769687609754 0 0 0
2940 196 15 0 -2237.7626561584843 -239.8965760846047 -1379.9750656327114 0 0 0
2927 196 2 0 -2174.9037920762617 -278.36586723842254 -1354.3840619359612 0 0 0
2594 173 14 -1.5 -1651.0129494113928 -234.60961762266814 -1404.7202361509148 0 0 1
2934 196 9 0 -2298.0575767314303 -216.78616870829515 -1387.9640923359357 0 0 0
2931 196 6 -0.5 -2264.6991922980687 -178.09518494139107 -1385.4143830502528 0 0 0
658 44 13 -0.5 -158.87868741892294 -152.34053911789192 -1377.5944336329123 0 0 0
2939 196 14 -1.5 -2252.1613970670446 -137.6759668169078 -1371.8325050040637 0 0 0
2582 173 2 0 -1666.2331592667178 -134.73269520475165 -1396.7699269048064 0 0 1
2584 173 4 0 -1654.9914304471295 -84.5617235337702 -1373.0781719358345 0 0 1
1063 71 13 -0.5 -672.7456905841525 280.32885273081774 -1370.2659634087363 0 0 0
1411 95 1 0 -1662.6430714949804 374.51838792708463 -1392.7716244702597 0 0 0
1053 71 3 -1.5 -665.9420636302018 312.94624664011303 -1397.5108791261318 0 0 0
1062 71 12 0 -629.3752234443682 344.78576928533727 -1399.1497545929535 0 0 0
1418 95 8 0 -1624.5847403633038 393.94825785976855 -1378.8162901636417 0 0 0
1060 71 10 1 -597.3116760073895 390.2145926240194 -1365.109062769036 0 0 0
1415 95 5 0 -1604.3817210452714 484.58575089969014 -1358.676523221206 0 0 0
1054 71 4 0 -336.79498719296623 588.949988045604 -1393.1023584075956 0 0 0
4931 329 11 1 -1849.2558568150553 601.0576895375332 -1379.7051170241423 0 0 0
1414 95 4 0 -1820.1782649454244 899.4235453110562 -1420.0455905347421 0 0 0
1412 95 2 0 -1786.921360349895 859.3917202543304 -1375.1004842485943 0 0 0
4081 273 1 0 -999.7668411926994 839.0999457998106 -1356.1349154701034 0 0 0
4356 291 6 -0.5 -2027.116248567566 1110.8523731238115 -1386.9581590075347 0 0 0
4364 291 14 -1.5 -2009.1632527885836 1070.9178184935515 -1394.9177937784498 0 0 0
4481 299 11 1 -2009.5737762740464 1108.1051694566036 -1380.0947478139983 0 0 0
4232 283 2 0 -1926.7860026151131 1122.542944382375 -1413.1236979409139 0 0 0
4359 291 9 0 -2028.8437844244086 1154.6064458370788 -1358.613416808096 0 0 0
4245 283 15 0 -1985.1988075336067 1148.6714446643018 -1376.9263388297609 0 0 0
2411 161 11 1 -2257.0564187412842 -1479.055297141906 -1332.3933255684958 0 0 0
3619 242 4 0 -5.116216277521806 -1411.780589628481 -1296.5218936212264 0 0 0
3617 242 2 0 -53.74369535732197 -1408.9663521272219 -1283.5377024245063 0 0 0
3778 252 13 -0.5 -1966.049690634827 -1318.923969084834 -1305.8711919858167 0 0 0
3768 252 3 -1.5 -1929.7440862860717 -1301.5725670671945 -1289.674154959542 0 0 0
3777 252 12 0 -1899.4544154055675 -1267.558901714744 -1307.649237470331 0 0 0
3775 252 10 1 -1839.2139242098185 -1250.184731499611 -1326.2123138340598 0 0 0
3616 242 1 0 -382.7936968767153 -1233.888656817408 -1322.6265881585737 0 0 0
1806 121 6 -0.5 -2563.862225447996 -689.2378065729961 -1349.353661050569 0 0 0
1809 121 9 0 -2572.295624315131 -635.4655483958087 -1340.7873830805033 0 0 0
1608 108 3 -1.5 -1459.6191430617716 -628.4342437646511 -1277.1293782349635 0 0 0
1607 108 2 0 -1105.4179175820013 -605.9153653337142 -1330.667331365435 0 0 0
1811 121 11 1 -2570.243793202226 -569.29973338487 -1340.5608431219491 0 0 0
245 17 5 0 -1261.3860393809239 -497.31890141256196 -1282.827863538302 0 0 0
923 62 8 0 -959.0679417424474 -477.23308256566304 -1339.1090130054222 0 0 0
920 62 5 0 -929.7819135520122 -466.9493314045422 -1279.097913830626 0 0 0
965 65 5 0 -2751.651246687549 -321.6968608735596 -1327.3399471137175 0 0 0
1805 121 5 0 -2625.9121050889385 -366.82056839080263 -1335.3306044379076 0 0 0
1808 121 8 0 -2669.0056041004336 -323.08167435699573 -1298.3476790463346 0 0 0
974 65 14 -1.5 -2394.2872718158087 -303.0152671091606 -1345.6075949320764 0 0 0
961 65 1 0 -2864.4309247204365 -245.054297511752 -1276.4679003049764 0 0 0
1801 121 1 0 -2703.157862211035 -283.5112762975179 -1297.5796658566471 0 0 0
971 65 11 1 -2541.863602861044 -273.4472990089052 -1347.8928432252612 0 0 0
966 65 6 -0.5 -2425.4533263143976 -271.755276659416 -1347.8531985643565 0 0 0
2929 196 4 0 -2124.4049578656623 -281.6920929953427 -1329.8403827674845 0 0 0
648 44 3 -1.5 -170.10501132317245 -176.46562320773464 -1344.2979295658533 0 0 0
657 44 12 0 -170.26536182234832 -166.16542375206046 -1297.9463466116683 0 0 0
650 44 5 0 -151.51445799251889 -62.686528717403704 -1303.1110488325921 0 0 0
653 44 8 0 -147.02215925883783 19.51020729771943 -1282.6414355663449 0 0 0
1057 71 7 2 -566.1925421695905 436.604196023285 -1339.113322601051 0 0 0
1423 95 13 -0.5 -1494.7425414396375 521.4520596229179 -1310.956127056322 0 0 0
1713 115 3 -1.5 -542.3059683761254 457.10739682794326 -1297.2823920301262 0 0 0
1723 115 13 -0.5 -576.0126385100035 470.5044140802826 -1320.1034354585424 0 0 0
1061 71 11 1 -533.9350492444336 474.1566631908457 -1319.8454164084271 0 0 0
1722 115 12 0 -496.95645939615684 469.8609730866024 -1287.4445297377997 0 0 0
1059 71 9 0 -490.63867336701577 516.6830952051574 -1289.5079679546632 0 0 0
1720 115 10 1 -439.06172007708926 503.2360493576309 -1299.837781966906 0 0 0
1717 115 7 2 -383.17528116882255 524.0020920074247 -1316.839831060445 0 0 0
1724 115 14 -1.5 -177.81170841885256 523.8087450153764 -1308.7883453338486 0 0 0
4935 329 15 0 -1927.4711927238893 598.8615642566466 -1276.0082011210584 0 0 0
1422 95 12 0 -1564.753142374539 565.8529029730673 -1317.0881040327733 0 0 0
1413 95 3 -1.5 -1532.5992840640633 534.251456141175 -1297.219435575017 0 0 0
1065 71 15 0 -456.3074943755594 543.2520662012561 -1315.0447541497829 0 0 0
1052 71 2 0 -381.5213386028888 566.1295789845374 -1342.3098235533555 0 0 0
1064 71 14 -1.5 -399.28589926201164 530.8618254755523 -1279.8474319065942 0 0 0
1721 115 11 1 -332.51642418911166 541.3715678066862 -1323.8005949037267 0 0 0
1719 115 9 0 -267.8980051111499 543.673042756323 -1329.6315667989857 0 0 0
1725 115 15 0 -215.4734808600626 543.9362273793296 -1282.9588314502407 0 0 0
1716 115 6 -0.5 -216.46424282964588 529.7340039190113 -1329.4352321770637 0 0 0
4929 329 9 0 -1857.2872346026522 610.1633089771312 -1315.6372036001699 0 0 0
1417 95 7 2 -1655.3130898527318 645.3063497553085 -1305.4113913233243 0 0 0
1420 95 10 1 -1606.2099299750653 609.3038996742742 -1313.792583854204 0 0 0
1419 95 9 0 -1731.3482421094354 736.9936332428523 -1283.5677587974997 0 0 0
1421 95 11 1 -1694.308525650934 680.5771494611088 -1291.006191613639 0 0 0
1425 95 15 0 -1763.6742562144755 783.8666297530527 -1329.828609452579 0 0 0
4088 273 8 0 -998.5234096916482 874.6780457738046 -1330.8511661148677 0 0 0
4085 273 5 0 -1000.963447704663 908.0833680895486 -1281.2909026835578 0 0 0
4652 311 2 0 -965.3969402647438 1021.8430696940108 -1302.327999203731 0 0 0
4654 311 4 0 -893.0504768104507 1028.9430498736353 -1328.2929757230147 0 0 0
4236 283 6 -0.5 -2024.969011162979 1117.0622879556297 -1334.672507866035 0 0 0
4244 283 14 -1.5 -2004.6513053329484 1079.7541527031665 -1347.3267326489206 0 0 0
4479 299 9 0 -1988.789119545589 1144.3724991099357 -1328.9979463043112 0 0 0
4239 283 9 0 -2021.8582140970261 1167.6146341202927 -1312.172850923796 0 0 0
4476 299 6 -0.5 -1965.9369053637733 1158.9492593649625 -1280.9586613555668 0 0 0
4357 291 7 2 -2065.3416332681436 1244.0165166469071 -1286.4987522054766 0 0 0
4361 291 11 1 -2051.099611421199 1202.3228941243983 -1318.5613008199816 0 0 0
4241 283 11 1 -2026.935259145747 1222.4054979481589 -1275.053936013094 0 0 0
5374 359 4 0 -291.4416404764701 1222.5009115515372 -1294.7943496631567 0 0 0
4358 291 8 0 -2218.503611004099 1391.036059236185 -1277.970702115406 0 0 0
2409 161 9 0 -2269.972184684981 -1476.203031787951 -1266.5060697498811 0 0 0
2406 161 6 -0.5 -2266.8570201768116 -1488.4738755853787 -1212.431308962446 0 0 0
2415 161 15 0 -2238.190616161346 -1442.4364927718211 -1225.655194271873 0 0 0
3621 242 6 -0.5 -99.95477296948049 -1444.9434683646905 -1208.0507987013336 0 0 0
3629 242 14 -1.5 -86.12589379780246 -1485.0030252401102 -1223.0339469841426 0 0 0
2402 161 2 0 -2209.163442500758 -1417.5959391104207 -1204.0085187203101 0 0 0
3630 242 15 0 -110.08932092680688 -1402.150026060778 -1246.1539513535567 0 0 0
3770 252 5 0 -1934.2600454177639 -1212.5126472585569 -1272.9749446056853 0 0 0
3623 242 8 0 -393.9748295822475 -1238.8219983711222 -1261.8168113340193 0 0 0
3773 252 8 0 -1954.4941762028527 -1148.6118110010216 -1225.2341322885954 0 0 0
2803 187 13 -0.5 -12.597119056197148 -760.6744628715344 -1250.012871130402 0 0 0
2793 187 3 -1.5 -5.49391066359521 -731.8896604335625 -1219.0005810828516 0 0 0
1618 108 13 -0.5 -1467.8075819873143 -670.3537875377496 -1273.7233367000315 0 0 0
5533 369 13 -0.5 -2761.748511373034 -536.9720091610072 -1229.9520393720986 0 0 0
1610 108 5 0 -1488.0324293637177 -540.8232633640271 -1240.7330841880553 0 0 0
1617 108 12 0 -1423.3212494298978 -593.5879992325994 -1273.5089447389169 0 0 0
1615 108 10 1 -1364.6183419456465 -571.3833532618103 -1253.3758442313936 0 0 0
1612 108 7 2 -1311.6294855063386 -553.2491048780043 -1226.3133239620076 0 0 0
253 17 13 -0.5 -1303.9487116635855 -587.4861393021081 -1205.1961457314057 0 0 0
243 17 3 -1.5 -1264.084768598542 -595.9451538451126 -1218.5199380297984 0 0 0
252 17 12 0 -1222.3491048660355 -573.4726450824525 -1219.6296681873712 0 0 0
1616 108 11 1 -1262.3256420305804 -542.9612491638276 -1205.4533232806743 0 0 0
250 17 10 1 -1161.8964199791908 -560.6298961671683 -1202.1821847108665 0 0 0
1620 108 15 0 -1150.0244704291267 -532.254116539383 -1239.0169804926181 0 0 0
968 65 8 0 -2800.4746053818694 -275.0433197818627 -1273.2873184420444 0 0 0
3121 209 1 0 -1343.9241856166766 -152.065607089828 -1222.9811683877492 0 0 0
655 44 10 1 -168.76333750776254 -185.3285946328518 -1237.0356473709412 0 0 0
5056 338 1 0 -1165.2821075893214 -5.046621156478515 -1228.0219380260476 0 0 0
646 44 1 0 -138.26749501651634 47.44932256966151 -1235.2572804813826 0 0 0
1715 115 5 0 -502.92430166307196 463.66554801162613 -1227.1175578467346 0 0 0
4922 329 2 0 -2005.0007016378331 571.567364442349 -1222.4778969422466 0 0 0
4934 329 14 -1.5 -1882.6043086595193 587.3353848214413 -1225.2232223499775 0 0 0
4926 329 6 -0.5 -1864.0220524809781 591.580914950647 -1265.5003709217951 0 0 0
1056 71 6 -0.5 -442.4271230705481 525.473134538874 -1270.9311617328783 0 0 0
1712 115 2 0 -176.21921978399513 533.4467176466126 -1258.8929265588586 0 0 0
1714 115 4 0 -138.11737813988057 531.3634825816282 -1224.530216353165 0 0 0
5173 345 13 -0.5 -2101.3868295951274 823.6233954719229 -1220.0966625856668 0 0 0
1416 95 6 -0.5 -1756.7238464214934 777.7047573524901 -1259.1541126459801 0 0 0
1424 95 14 -1.5 -1768.3528552396972 820.3583782405517 -1258.577126558488 0 0 0
4663 311 13 -0.5 -1297.3857178460007 817.9121505537261 -1249.1916214912685 0 0 0
4653 311 3 -1.5 -1281.6727692967918 856.9857782664963 -1242.7840588684767 0 0 0
4662 311 12 0 -1248.9321856432787 876.9469978228916 -1207.1290175958434 0 0 0
4093 273 13 -0.5 -1127.37657380458 968.027060734318 -1210.3894783278306 0 0 0
4083 273 3 -1.5 -1092.490558183534 951.1312868187493 -1229.197382380577 0 0 0
4092 273 12 0 -1046.3826802411097 962.5060593882722 -1227.6789426820762 0 0 0
4665 311 15 0 -1022.3668796598403 1027.3624662898033 -1239.6923761816045 0 0 0
4664 311 14 -1.5 -956.750830759564 1034.764455187334 -1207.7431852297623 0 0 0
4485 299 15 0 -1984.4045588846616 1104.173601379329 -1262.4091427839728 0 0 0
4472 299 2 0 -1971.0022371096652 1075.4577234281373 -1201.7024269986857 0 0 0
4484 299 14 -1.5 -1955.8776377169895 1191.5882953533428 -1253.4879797044816 0 0 0
4237 283 7 2 -2038.5634614982498 1268.8848870416793 -1250.2298839138914 0 0 0
5372 359 2 0 -315.36047313329703 1231.8356686661343 -1252.2986806668973 0 0 0
5385 359 15 0 -329.7333498437926 1241.2066320844049 -1204.78143626128 0 0 0
4362 291 12 0 -2103.537210645595 1337.813658904934 -1212.9578247566649 0 0 0
4360 291 10 1 -2087.1770856595153 1290.8969463345904 -1251.8871782944568 0 0 0
4240 283 10 1 -2055.8877434617416 1322.9464103462776 -1227.2438460965723 0 0 0
4351 291 1 0 -2273.800603027698 1359.4631822115755 -1273.618334554893 0 0 0
4355 291 5 0 -2173.3875122304557 1365.4623143618956 -1240.910451231045 0 0 0
4242 283 12 0 -2069.2671071774544 1383.0506375167786 -1210.805660552184 0 0 0
4261 285 1 0 -693.7542720323582 1364.8815484563504 -1228.6249946796809 0 0 0
4892 327 2 0 -497.6041686647189 1355.73361861888 -1215.7421081480616 0 0 0
4894 327 4 0 -487.67415808513533 1391.5699640835153 -1250.4521539350599 0 0 0
4243 283 13 -0.5 -2075.9482010298607 1466.7644796994823 -1205.9603739719525 0 0 0
4233 283 3 -1.5 -2051.8951863252996 1430.9598860423334 -1207.9850935038721 0 0 0
2404 161 4 0 -2196.3452057867603 -1386.0683725891236 -1162.7057497029964 0 0 0
3625 242 10 1 -310.0745617086268 -1366.3313373360243 -1139.7400283281459 0 0 0
3622 242 7 2 -253.554197430443 -1386.8005363278185 -1154.7941088280984 0 0 0
3626 242 11 1 -203.70672182687662 -1404.6984941236499 -1169.9816311525979 0 0 0
3624 242 9 0 -142.07320757393003 -1413.107716155118 -1192.7524908799799 0 0 0
3627 242 12 0 -366.21749739064137 -1335.3040643152494 -1130.1483250892072 0 0 0
3620 242 5 0 -373.4804720400522 -1266.4424011043272 -1189.3086826563099 0 0 0
3766 252 1 0 -1923.4176722738525 -1132.9127300314292 -1163.3462453023442 0 0 0
1614 108 9 0 -1199.1464722418366 -533.3750452846849 -1188.9733785153949 0 0 0
247 17 7 2 -1102.201560020224 -546.6730596123267 -1195.7273249944985 0 0 0
251 17 11 1 -1051.1309157886494 -531.0236586554526 -1184.2329930993662 0 0 0
928 62 13 -0.5 -944.2981053701352 -539.6910275065437 -1158.961408951249 0 0 0
5523 369 3 -1.5 -2771.820716756178 -520.8867991403656 -1191.501600805127 0 0 0
5532 369 12 0 -2740.67938652537 -507.40233454007483 -1153.3417430530885 0 0 0
1613 108 8 0 -1500.5718890910412 -472.67392275566255 -1198.3490652980968 0 0 0
1611 108 6 -0.5 -1144.224397806081 -520.4648444358918 -1190.1819416807136 0 0 0
1619 108 14 -1.5 -1105.918306446291 -518.6994751772994 -1168.532806569341 0 0 0
249 17 9 0 -991.634283848518 -523.4180545449982 -1158.1958326437516 0 0 0
918 62 3 -1.5 -906.6667272530711 -523.948486710341 -1145.2317483348627 0 0 0
246 17 6 -0.5 -949.5356716870976 -501.54561902985176 -1133.4726756498644 0 0 0
254 17 14 -1.5 -915.0868810651031 -473.54507862001753 -1130.8044378184632 0 0 0
927 62 12 0 -878.9031028208099 -484.2279126223471 -1160.8090903544576 0 0 0
1606 108 1 0 -1465.8140662645997 -414.8388051720456 -1167.7871848405578 0 0 0
925 62 10 1 -827.0954296207085 -441.84662237533104 -1151.1854560823308 0 0 0
922 62 7 2 -784.4841784141342 -397.8170250008713 -1148.7031711004163 0 0 0
926 62 11 1 -740.4862566123828 -366.3748302363495 -1144.962575554531 0 0 0
924 62 9 0 -685.136606836151 -332.82428012828524 -1134.465349413502 0 0 0
652 44 7 2 -173.09162763924706 -193.39313912260096 -1176.0304269895175 0 0 0
3128 209 8 0 -1307.9719169820391 -123.4371971106232 -1182.7434354953195 0 0 0
5063 338 8 0 -1135.5125552389384 -26.073704380407225 -1168.031609791905 0 0 0
5057 338 2 0 -778.8370504356429 -13.538806447990266 -1146.0157738011535 0 0 0
5059 338 4 0 -739.6086132226225 -6.25570073229536 -1187.3105425969545 0 0 0
1711 115 1 0 -564.8144500157994 377.83052185777865 -1143.1002476558135 0 0 0
1718 115 8 0 -532.0651109803226 434.2850149438036 -1165.1263733931005 0 0 0
3021 202 6 -0.5 -429.3687720863514 422.9015859820137 -1131.1285020480711 0 0 0
3029 202 14 -1.5 -386.85927348133964 415.1351508481372 -1139.210322533393 0 0 0
4924 329 4 0 -2045.482623527098 582.4352299300081 -1186.2931017713101 0 0 0
5168 345 8 0 -1975.0626649531184 665.6771482250523 -1131.9104321930656 0 0 0
5161 345 1 0 -1919.3900818922414 638.3391866895485 -1152.0113278648087 0 0 0
5165 345 5 0 -2007.7999310667062 707.5914327843999 -1136.1950167830528 0 0 0
5163 345 3 -1.5 -2111.68592957864 800.6087661467544 -1185.244764162687 0 0 0
5172 345 12 0 -2100.461415266427 806.3166633672022 -1136.2702508667812 0 0 0
4655 311 5 0 -1301.0427814581778 883.9145466143477 -1149.6064648330068 0 0 0
4066 272 1 0 -2705.8374499034094 924.5136800952464 -1193.8270471383307 0 0 0
4073 272 8 0 -2679.641447830509 951.0936530846474 -1139.2991233521184 0 0 0
4660 311 10 1 -1196.963259738039 917.217322687525 -1196.2964879682884 0 0 0
4657 311 7 2 -1148.157253830273 951.7982994154414 -1181.3641335456948 0 0 0
4474 299 4 0 -1952.2861240517723 1031.748184078022 -1178.5318790737772 0 0 0
4661 311 11 1 -1105.9945162010167 984.8445330382125 -1172.7039645239804 0 0 0
4659 311 9 0 -1047.4704079154237 1019.2501285335289 -1176.9311665323444 0 0 0
4090 273 10 1 -999.968852654606 995.1318654457375 -1192.5716890923495 0 0 0
4656 311 6 -0.5 -991.9143100180441 1029.1208930581731 -1180.8580907285814 0 0 0
5638 376 13 -0.5 -968.2967291969909 1003.5656362986547 -1140.6182384019637 0 0 0
5628 376 3 -1.5 -963.3849624368077 1045.8866721256181 -1135.8400354712203 0 0 0
4087 273 7 2 -949.2612145334916 1021.7153085958948 -1168.7357647121084 0 0 0
4091 273 11 1 -906.8827799054068 1044.1379380832284 -1143.3786215504915 0 0 0
4095 273 15 0 -801.9286404282611 1090.0488737423466 -1148.4060592151286 0 0 0
4182 279 12 0 -784.5346298634688 1167.5612343081839 -1143.239124931311 0 0 0
4082 273 2 0 -733.8412420606671 1143.870208228522 -1170.301052937724 0 0 0
4084 273 4 0 -675.2426753810081 1165.4107472180872 -1169.263862349277 0 0 0
4180 279 10 1 -720.5513785989152 1172.5855668442953 -1136.9653468601987 0 0 0
4177 279 7 2 -660.6247386700052 1183.770982504725 -1128.1511400484749 0 0 0
4181 279 11 1 -606.5362734087595 1193.4526221108126 -1130.2421510855804 0 0 0
4179 279 9 0 -541.0913790261114 1197.6753322334512 -1136.3988941671143 0 0 0
4175 279 5 0 -820.453630784722 1269.0608219759238 -1156.1816073843602 0 0 0
5373 359 3 -1.5 -648.4429710744052 1230.515573816477 -1131.4971140753314 0 0 0
5382 359 12 0 -603.2461702020486 1249.0678901554554 -1132.9583268387846 0 0 0
5380 359 10 1 -538.7053469945562 1249.3787773829172 -1140.773801311109 0 0 0
5377 359 7 2 -476.92052885848983 1251.7028082470115 -1143.7965538557987 0 0 0
4176 279 6 -0.5 -492.03353167345006 1217.9595503270045 -1143.4513998510445 0 0 0
4184 279 14 -1.5 -450.7610299033344 1223.2306025092578 -1128.9828860784573 0 0 0
5381 359 11 1 -423.44992689341103 1250.196141135823 -1149.7451702194064 0 0 0
4904 327 14 -1.5 -442.6089209630428 1239.1883223782636 -1128.6641493412058 0 0 0
5379 359 9 0 -359.8574328428152 1261.2705534776446 -1161.2813566189095 0 0 0
5376 359 6 -0.5 -308.5837123659208 1258.333655456281 -1157.297726941697 0 0 0
5384 359 14 -1.5 -269.4265121601801 1273.8207333413204 -1143.3464760685856 0 0 0
4275 285 15 0 -274.4725928551887 1226.6535281232455 -1126.668962830271 0 0 0
4262 285 2 0 -214.80236364720676 1218.0127899688298 -1133.59473061251 0 0 0
4264 285 4 0 -155.94132039314704 1226.1226097926415 -1131.3759108128047 0 0 0
4178 279 8 0 -785.646171318297 1332.1912185604003 -1152.5709201566954 0 0 0
4268 285 8 0 -681.9046002573185 1336.223760607201 -1187.3208984776636 0 0 0
4265 285 5 0 -629.4399910264291 1317.9645375098453 -1159.2199692157287 0 0 0
4905 327 15 0 -491.1362448889132 1314.6479095672375 -1142.1478834888987 0 0 0
4235 283 5 0 -2172.8912166124564 1384.1125733757292 -1139.353428700175 0 0 0
4353 291 3 -1.5 -2094.6426635577013 1367.6108475500987 -1172.2561046435655 0 0 0
4363 291 13 -0.5 -2056.926257910206 1382.0867106331136 -1157.2532729989528 0 0 0
4171 279 1 0 -774.8070847712446 1396.8193902164076 -1159.943519550562 0 0 0
2414 161 14 -1.5 -2276.4635168463465 1485.5792008547523 -1178.4073191760742 0 -1 0
3628 242 13 -0.5 -424.3998848801105 -1286.1394990594372 -1098.7220716277302 0 0 0
3618 242 3 -1.5 -402.47000095589675 -1322.6228717576444 -1100.1007492744618 0 0 0
2656 178 1 0 -256.60895025178155 -986.0543264566755 -1119.735877596928 0 0 0
2663 178 8 0 -224.83306398761405 -926.1151017197606 -1081.4816474327483 0 0 0
2660 178 5 0 -209.56162641737885 -849.0854135017171 -1050.0395246246262 0 0 0
2665 178 10 1 -92.14673167295602 -779.7601462092304 -1054.842112592805 0 0 0
2666 178 11 1 -3.1080680485475565 -757.2284195493821 -1124.6782657233616 0 0 0
2662 178 7 2 -45.39715425666501 -772.0103301163762 -1094.8292250348686 0 0 0
1313 88 8 0 -27.260483859098066 -724.0050081198001 -1072.6612668965765 0 0 0
5525 369 5 0 -2749.3799631848983 -577.1600239859254 -1091.339800208316 0 0 0
5530 369 10 1 -2713.0265519011496 -459.9789510658427 -1120.3175845693363 0 0 0
255 17 15 0 -976.2195017413176 -521.8435570782302 -1082.4733088458627 0 0 0
5527 369 7 2 -2680.0344219763037 -418.1830813793139 -1090.6487899146894 0 0 0
5531 369 11 1 -2646.538846499099 -382.77777987546057 -1067.6854586876077 0 0 0
3388 226 13 -0.5 -813.013859944932 -391.63515943769244 -1122.4694654192408 0 0 0
3378 226 3 -1.5 -779.4577221873335 -384.1884109851179 -1097.4649000876375 0 0 0
3387 226 12 0 -752.3672979921478 -345.2600524523407 -1090.4677996518838 0 0 0
3385 226 10 1 -699.8886395044334 -320.8803223119602 -1068.621927579371 0 0 0
930 62 15 0 -652.3214350801139 -329.5593548578424 -1080.1174027374493 0 0 0
3379 226 4 0 -426.46878831142203 -352.3734685523014 -1068.9930957135525 0 0 0
921 62 6 -0.5 -656.2438453153246 -291.510820296413 -1115.9334590878354 0 0 0
929 62 14 -1.5 -644.8257379080402 -261.3345988198151 -1084.8063985523906 0 0 0
3382 226 7 2 -645.3863377186475 -293.83048285903595 -1058.9218451233398 0 0 0
3386 226 11 1 -596.7141001816268 -271.4707276825185 -1050.115148648676 0 0 0
3390 226 15 0 -479.75104495446095 -253.09860826711198 -1067.477009404984 0 0 0
3377 226 2 0 -445.2622432407843 -293.71204696539127 -1070.4234117693088 0 0 0
656 44 11 1 -173.6186006372684 -204.7442126383198 -1123.1465466062411 0 0 0
654 44 9 0 -145.25361852936032 -217.47344851310973 -1063.545671751909 0 0 0
3125 209 5 0 -1285.0019714651005 -117.99979866402184 -1104.1760211973478 0 0 0
3124 209 4 0 -881.1877566437043 -124.143202414451 -1087.8533626155438 0 0 0
5064 338 9 0 -830.5238617867839 -108.38133667016916 -1054.2977664621396 0 0 0
5061 338 6 -0.5 -776.5563633294936 -98.02699883575178 -1055.936335329603 0 0 0
5069 338 14 -1.5 -741.9720187678333 -82.53676267695401 -1078.9185359428093 0 0 0
5060 338 5 0 -1099.12085823341 -47.89468921432855 -1122.788990863587 0 0 0
5070 338 15 0 -801.7901038824064 -69.29700682615118 -1091.999511270228 0 0 0
1291 87 1 0 -1170.2556577490104 252.03897183797454 -1062.8739883393323 0 0 0
1298 87 8 0 -1105.7888318270384 274.669169819611 -1051.1743627366423 0 0 0
2391 160 6 -0.5 -594.4086155355812 359.70405359511017 -1053.5594051823468 0 0 0
2399 160 14 -1.5 -573.9071963720769 396.79052693836314 -1066.6814175411123 0 0 0
3026 202 11 1 -526.3933181468134 407.79983309761553 -1057.8839877123428 0 0 0
3024 202 9 0 -473.93497286307587 423.5706349218276 -1095.5176652454527 0 0 0
3030 202 15 0 -416.3790708088789 409.94102381847847 -1080.2891770125145 0 0 0
3017 202 2 0 -353.2459739122574 420.08495481728767 -1053.0475515802734 0 0 0
3019 202 4 0 -300.27774726660454 438.00683743016594 -1053.4179370509617 0 0 0
4681 313 1 0 -2558.262509570574 495.5844851331948 -1114.755476432435 0 0 0
3016 202 1 0 -811.881010317012 495.20221757271366 -1083.0773756278547 0 0 0
4688 313 8 0 -2601.2509666657224 550.7689936969426 -1104.6390337533537 0 0 0
4685 313 5 0 -2627.065266326647 605.2072504027877 -1057.0695036978314 0 0 0
4070 272 5 0 -2655.109330936848 884.8750355015551 -1077.8700803119457 0 0 0
5170 345 10 1 -2089.9721381087843 843.6909527517373 -1081.5385739620028 0 0 0
4658 311 8 0 -1309.0548240347373 926.0677895450048 -1082.9919938285398 0 0 0
2178 146 3 -1.5 -986.2283520825451 1104.6655770296852 -1079.298204721073 0 0 0
2188 146 13 -0.5 -1029.2207898431275 1107.2134338808232 -1078.6580032372497 0 0 0
5637 376 12 0 -935.4383055736832 1065.0638258815495 -1101.0026871262075 0 0 0
4089 273 9 0 -853.808104244919 1075.351203503537 -1122.7621803337888 0 0 0
5635 376 10 1 -888.0368929437416 1105.4972988147292 -1088.8886204333046 0 0 0
4086 273 6 -0.5 -826.616511814467 1109.661028087593 -1095.5139505624336 0 0 0
4183 279 13 -0.5 -852.1801013531992 1124.6687247682203 -1123.8613731676112 0 0 0
4903 327 13 -0.5 -819.0752646197332 1103.1456281447174 -1106.4986671030626 0 0 0
4893 327 3 -1.5 -783.4995521146633 1118.8229822494336 -1124.1246930560014 0 0 0