LAMMPS data file via write_data, version 27 Jun 2024, timestep = 6720000, units = real

5730 atoms
15 atom types
5450 bonds
16 bond types
5730 angles
15 angle types

-3000 3000 xlo xhi
-1500 1500 ylo yhi
-1500 1500 zlo zhi

Masses

1 241.19
2 73.54000000000001
3 330.71
4 235.16
5 68.06999999999999
6 353.53
7 223.38
8 41.1
9 216.91
10 155.15
11 147.32
12 264.65
13 300.8
14 326.05
15 85.20999999999999

Pair Coeffs # lj/cut/coul/debye/gpu

1 0.71637 40.7505
2 0.665709 48.1397
3 1.15033 39.2216
4 0.726774 43.8077
5 0.514724 53.3428
6 1.17127 41.7847
7 1.2256 38.5601
8 0.675431 54.5696
9 1.26117 43.78
10 0.939007 42.5209
11 0.960667 41.1825
12 1.30988 48.0761
13 1.36645 37.7114
14 1.35529 39.2179
15 0.592003 47.2602

Bond Coeffs # harmonic

1 0.003 59.228
2 0.008 56.48
3 0.001 69.324
4 3.207 42.88
5 0.11 49.807
6 0.002 74.968
7 0.001 91.635
8 0.145 54.383
9 2.709 44.406
10 1.71 61.679
11 1.625 54.051
12 0.207 66.185
13 0.002 64.76
14 0.079 63.886
15 0.2 40
16 0.2 40

Angle Coeffs # harmonic

1 11.427 158.273
2 50.464 132.042
3 8.207 156.514
4 92.705 149.394
5 100 174.44
6 3.15 145.53
7 48.938 159.031
8 17.401 129.945
9 15.735 56.441
10 60 172.254
11 60.285 168.396
12 11.83 99.091
13 150 107.995
14 27.746 149.925
15 7.483 160.775

Atoms # full

2413 161 13 -0.5 -2437.918877632182 -1492.203411114638 -1457.5427271279343 0 0 0
2403 161 3 -1.5 -2399.862771516269 -1481.9933164363795 -1475.547791158728 0 0 0
2412 161 12 0 -2365.253365219816 -1447.5555211486464 -1465.0094018640177 0 0 0
2410 161 10 1 -2306.5464401454133 -1440.5055989287475 -1448.2261643223087 0 0 0
3623 242 8 0 -370.64989881227825 -1266.8798246062033 -1429.3880645412557 0 0 0
3616 242 1 0 -363.10766462692857 -1252.920655564138 -1488.5888533649427 0 0 0
3769 252 4 0 -1683.1501600268994 -1132.081816322416 -1446.5465502792742 0 0 0
2595 173 15 0 -1623.0930569221343 -466.9888256628961 -1434.3699695835253 0 0 1
2589 173 9 0 -1636.2023524775611 -410.6816107890349 -1486.2482412315455 0 0 1
2586 173 6 -0.5 -1588.21948532797 -396.4599192290711 -1459.154114507578 0 0 1
2594 173 14 -1.5 -1546.2428765439136 -404.9134486667699 -1445.3971571062102 0 0 1
963 65 3 -1.5 -2711.1547962453496 -361.552224783793 -1440.6284014573791 0 0 0
972 65 12 0 -2687.9551496781855 -317.868562749083 -1431.9873911272427 0 0 0
965 65 5 0 -2772.9060970953838 -249.93809798874466 -1454.9130083665286 0 0 0
2926 196 1 0 -2690.749659339257 -247.505618224738 -1490.3711613845921 0 0 0
2933 196 8 0 -2633.985755146985 -256.28593365221997 -1462.2862052014 0 0 0
1071 72 6 -0.5 -369.8324745780413 -229.021061454762 -1465.087863495947 0 0 1
968 65 8 0 -2820.886541886927 -217.9148595236701 -1479.6618465348913 0 0 0
1067 72 2 0 -246.00030788849338 -199.63549526953818 -1490.7028385733909 0 0 1
1069 72 4 0 -193.4961079972749 -205.96713738945658 -1454.697554437413 0 0 1
658 44 13 -0.5 -226.667415812603 -70.73533496815773 -1471.5384705851109 0 0 0
648 44 3 -1.5 -220.034822812076 -29.81009202566491 -1481.7832825728597 0 0 0
657 44 12 0 -221.91835905354975 12.060330421398561 -1453.88663238473 0 0 0
1051 71 1 0 -771.5872612475857 353.21826471926244 -1453.8508108798846 0 0 0
1058 71 8 0 -736.5006242288682 388.1415428147831 -1447.5576821384675 0 0 0
4932 329 12 0 -1929.264951830492 570.9058368666393 -1477.6340847072136 0 0 0
1418 95 8 0 -1877.2283273585629 558.6301636467086 -1460.636346070783 0 0 0
1415 95 5 0 -1823.8311465097433 532.6435906519632 -1438.8461989253494 0 0 0
4930 329 10 1 -1900.74103290223 615.6045754673285 -1441.5279121284625 0 0 0
4473 299 3 -1.5 -2184.3108761063872 867.8792959664999 -1474.176837187042 0 0 0
4483 299 13 -0.5 -2182.255086595994 839.1579903077977 -1442.556566983819 0 0 0
1404 94 9 0 -2200.436465539602 941.9629058050181 -1486.4947633400684 0 0 1
1401 94 6 -0.5 -2153.2575400462456 953.4982701990956 -1464.8929479262233 0 0 1
4480 299 10 1 -2105.9842554435754 949.4322319248183 -1489.6373226503072 0 0 0
4482 299 12 0 -2156.7644370424055 908.0688153974231 -1489.9874607490274 0 0 0
1409 94 14 -1.5 -2120.095556986728 982.851911389686 -1461.848625326313 0 0 1
4477 299 7 2 -2062.4691678597696 992.693419133368 -1488.7444444772211 0 0 0
4481 299 11 1 -2031.3009862393062 1034.6501204329325 -1476.9085459082896 0 0 0
4479 299 9 0 -1983.7142254654395 1074.993989337949 -1458.3823906191135 0 0 0
4485 299 15 0 -1963.9907591385713 1120.6293603253528 -1479.9716614406059 0 0 0
4476 299 6 -0.5 -1933.789910149257 1094.346230634441 -1446.8719499380873 0 0 0
4484 299 14 -1.5 -1897.7148985117537 1116.910750325193 -1459.6757351776378 0 0 0
4472 299 2 0 -1904.9803570459076 1184.5460788032228 -1477.2310810121903 0 0 0
4474 299 4 0 -1876.6081372591427 1228.6406621967787 -1498.005293105703 0 0 0
4261 285 1 0 -667.7176360628332 1243.6321125009686 -1444.285723322226 0 0 0
2407 161 7 2 -2250.2942559211147 -1445.1631885950928 -1422.7336330987878 0 0 0
2411 161 11 1 -2200.9580498773917 -1441.597451726248 -1401.3365999423863 0 0 0
2409 161 9 0 -2141.0233844707864 -1425.5936178458717 -1377.587314638801 0 0 0
2406 161 6 -0.5 -2087.1422377163494 -1427.0836894608021 -1360.8907020810598 0 0 0
3620 242 5 0 -343.7088917983626 -1342.1260519216976 -1394.5105438025375 0 0 0
3767 252 2 0 -1702.5887974398793 -1138.6701575933328 -1394.8368227480737 0 0 0
1813 121 13 -0.5 -2580.490750329957 -638.8112505039077 -1390.1527886002216 0 0 0
1803 121 3 -1.5 -2548.0397773026566 -640.1871521307874 -1362.1718607216835 0 0 0
1812 121 12 0 -2511.191102115143 -611.2454719282073 -1355.1720534706121 0 0 0
1805 121 5 0 -2569.7859825587657 -527.4721206238607 -1361.4891854858622 0 0 0
1808 121 8 0 -2558.29236016004 -454.95683404694597 -1368.578080300807 0 0 0
2582 173 2 0 -1590.5324354806344 -515.1384471437835 -1383.0824754998669 0 0 1
973 65 13 -0.5 -2711.256073942975 -400.7186116406936 -1422.4461937486233 0 0 0
1801 121 1 0 -2561.2920736158226 -405.64131653351114 -1363.503362197312 0 0 0
970 65 10 1 -2642.8123916544614 -284.8544316750955 -1406.0959594417732 0 0 0
967 65 7 2 -2596.434704692667 -256.8343392796336 -1377.6809906502397 0 0 0
2930 196 5 0 -2576.077778308876 -214.21930225531216 -1395.851730922527 0 0 0
2937 196 12 0 -2568.0830073010407 -195.0731113359201 -1352.2111311445137 0 0 0
2935 196 10 1 -2508.5840159380164 -164.36040367130994 -1351.3644738192802 0 0 0
1079 72 14 -1.5 -382.5017081337994 -223.15995173955878 -1422.7806924358415 0 0 1
964 65 4 0 -2292.6244948799545 -93.22842372035088 -1369.928159491391 0 0 0
2927 196 2 0 -2236.0585929744143 -34.82200455068381 -1404.0826449426747 0 0 0
2929 196 4 0 -2200.7681615161564 -9.053303088250901 -1411.3982405874583 0 0 0
655 44 10 1 -201.08125727703683 41.06978655424011 -1397.126477646651 0 0 0
1423 95 13 -0.5 -1763.2840354315415 357.39358833207973 -1374.7362564636396 0 0 0
1413 95 3 -1.5 -1778.053826182602 397.04966726415165 -1367.883032547643 0 0 0
1422 95 12 0 -1749.327657110659 438.9805138609635 -1369.9487153287707 0 0 0
1055 71 5 0 -699.0755262748645 410.54252538936504 -1383.738865546817 0 0 0
1420 95 10 1 -1695.6724595525527 466.7451827402769 -1350.5134593439548 0 0 0
4927 329 7 2 -1877.005981932016 663.9939081194342 -1412.5841958458636 0 0 0
4931 329 11 1 -1850.217793506692 705.0731682708183 -1390.062254813407 0 0 0
4929 329 9 0 -1805.776413084802 745.6006420365273 -1360.1753088230132 0 0 0
4693 313 13 -0.5 -2853.0079983091628 766.862499695141 -1353.8410477749408 0 0 0
4268 285 8 0 -660.5484400479778 1269.564654681449 -1360.9185063225257 0 0 0
4171 279 1 0 -754.3167142205397 1290.126718334967 -1382.8013788132976 0 0 0
2415 161 15 0 -2102.01851905837 -1421.7390323147597 -1305.4416817096671 0 0 0
2414 161 14 -1.5 -2053.3711482382087 -1406.4693627614383 -1340.4119508291044 0 0 0
3618 242 3 -1.5 -379.7730885136806 -1382.7754642480297 -1311.048453595926 0 0 0
3628 242 13 -0.5 -407.69642009799554 -1353.5226167623027 -1325.2121916343003 0 0 0
3627 242 12 0 -329.62136004593543 -1385.3295602912845 -1313.641742045272 0 0 0
3625 242 10 1 -272.97065020540106 -1359.8105785487253 -1287.401120314861 0 0 0
3780 252 15 0 -1738.3831096648983 -1168.1728008365476 -1345.4352579424958 0 0 0
3771 252 6 -0.5 -1724.1431159068738 -1145.9128896087595 -1290.717297568426 0 0 0
3779 252 14 -1.5 -1682.7238553958239 -1149.2449427543893 -1305.7169772017457 0 0 0
2791 187 1 0 -25.980767503769908 -754.3124234270197 -1347.3584613350913 0 0 0
1810 121 10 1 -2453.2896335016176 -593.9173078612997 -1326.876431733211 0 0 0
1807 121 7 2 -2397.030852147858 -572.7826136405534 -1310.2527985571553 0 0 0
1811 121 11 1 -2348.8843862495078 -556.0775547630686 -1289.718640323973 0 0 0
1809 121 9 0 -2285.2354729296126 -535.4474664374976 -1281.4595728471445 0 0 0
2584 173 4 0 -1566.9980799212028 -536.558963954078 -1339.9614801776563 0 0 1
1815 121 15 0 -2256.156816144224 -470.38297555592743 -1291.3468437588558 0 0 0
1609 108 4 0 -1169.5609152850388 -522.5956193596863 -1284.5822812596834 0 0 0
1802 121 2 0 -2211.800809451486 -446.5296920283453 -1278.5840364852277 0 0 0
1804 121 4 0 -2171.147305901397 -404.27075519084065 -1287.9405044056255 0 0 0
971 65 11 1 -2553.5982354798357 -239.06590943690645 -1349.896931710737 0 0 0
2938 196 13 -0.5 -2622.956575312447 -255.98855795899846 -1347.798537523739 0 0 0
2928 196 3 -1.5 -2603.0079336383637 -220.50521281646988 -1333.8144722739314 0 0 0
969 65 9 0 -2501.262565434901 -208.28162024009777 -1328.5980108160586 0 0 0
975 65 15 0 -2418.095179113483 -182.96284234045578 -1345.2056593774964 0 0 0
966 65 6 -0.5 -2471.772111297172 -172.62081477468814 -1301.8449959887755 0 0 0
2932 196 7 2 -2458.2968031757073 -130.76801432366068 -1339.8533093016324 0 0 0
974 65 14 -1.5 -2445.6866872732608 -136.60874009062883 -1300.559635168184 0 0 0
2936 196 11 1 -2409.4686883564473 -106.97407077278163 -1332.5610128527144 0 0 0
962 65 2 0 -2331.2693030037844 -136.07130304769262 -1347.06009349094 0 0 0
2934 196 9 0 -2345.9642409717876 -88.39210487615604 -1313.0676040197936 0 0 0
2931 196 6 -0.5 -2289.7238227982007 -86.14587393180877 -1308.6310712451057 0 0 0
2940 196 15 0 -2294.7150361706385 -51.16671995886845 -1346.5890266738388 0 0 0
2939 196 14 -1.5 -2250.853474094246 -66.79304865719381 -1317.133792407878 0 0 0
652 44 7 2 -184.9915675137477 62.95108850728425 -1341.341619507116 0 0 0
656 44 11 1 -175.54553948196258 78.53256638544009 -1290.7345363726965 0 0 0
1417 95 7 2 -1644.0333995515286 496.06771656280614 -1334.3166119503062 0 0 0
1421 95 11 1 -1597.2712432458572 521.0116543500983 -1325.157660855742 0 0 0
1053 71 3 -1.5 -714.4078727339403 516.8960213307475 -1302.5831649246738 0 0 0
1062 71 12 0 -667.8566466962684 504.5063685065171 -1305.2955155413615 0 0 0
1060 71 10 1 -609.8539497703266 494.31150100262795 -1284.3441208834004 0 0 0
1419 95 9 0 -1534.1588596559484 541.4142383865673 -1314.312802321917 0 0 0
1425 95 15 0 -1506.0042185407851 596.9388946776054 -1276.8141612018248 0 0 0
1416 95 6 -0.5 -1487.679277908028 541.4538860738917 -1283.7930689360712 0 0 0
1424 95 14 -1.5 -1443.240058897992 548.5598585646561 -1281.1244457535975 0 0 0
4683 313 3 -1.5 -2869.0087204613124 783.3432690827735 -1317.9502689103954 0 0 0
4935 329 15 0 -1812.1816760176278 805.7978183856183 -1318.2198965738842 0 0 0
4926 329 6 -0.5 -1773.0385224525573 757.2727007915032 -1318.7885717586478 0 0 0
4934 329 14 -1.5 -1761.4088956748656 784.3391256538843 -1285.972706914746 0 0 0
4922 329 2 0 -1827.5436886025216 849.7209341030446 -1305.1367089879368 0 0 0
4651 311 1 0 -1471.5480309948812 1065.5883129285169 -1286.991552125746 0 0 0
5632 376 7 2 -820.7386666790255 1122.5739469916987 -1282.7280875429458 0 0 0
5637 376 12 0 -949.4363836311867 1131.1145472360317 -1278.0228178272102 0 0 0
5635 376 10 1 -883.0231685030204 1125.4737470333757 -1283.89490892475 0 0 0
5636 376 11 1 -766.8136879283618 1125.988985384062 -1285.8979285869748 0 0 0
4175 279 5 0 -738.2633963965145 1166.8660426802276 -1307.0117208237498 0 0 0
5634 376 9 0 -701.6427693004873 1143.5942682585244 -1284.9584928909517 0 0 0
4273 285 13 -0.5 -619.805392420997 1151.489930227377 -1308.4739890045548 0 0 0
4263 285 3 -1.5 -584.5348560201794 1138.080694033362 -1286.9456188940478 0 0 0
4272 285 12 0 -536.0059862713736 1156.3530066133076 -1288.051415813526 0 0 0
5630 376 5 0 -964.9342488582108 1209.5370664896761 -1293.2517021458013 0 0 0
4178 279 8 0 -749.3515995707578 1235.6587350779057 -1335.339603679374 0 0 0
4265 285 5 0 -588.8736560048732 1250.1762980366534 -1322.0040250638112 0 0 0
5633 376 8 0 -1026.968419921774 1281.05934395201 -1311.5827286609513 0 0 0
5626 376 1 0 -1028.141336242104 1353.7032586480166 -1326.2461467263306 0 0 0
2402 161 2 0 -2060.154972043683 -1396.6274411112263 -1207.5287385944412 0 0 0
3630 242 15 0 -66.20045122601331 -1370.3937886004776 -1224.2070367840945 0 0 0
3622 242 7 2 -215.54449272880038 -1343.2178556634058 -1271.441654413467 0 0 0
3626 242 11 1 -165.45262303301735 -1333.3893248063412 -1253.0162134732964 0 0 0
3624 242 9 0 -100.77934481647854 -1335.5659135432202 -1252.3146882659594 0 0 0
3621 242 6 -0.5 -48.893120574656365 -1315.9963472524123 -1240.437408122048 0 0 0
3629 242 14 -1.5 -23.177920367981358 -1280.8022287025872 -1230.2722360603327 0 0 0
3778 252 13 -0.5 -2068.257119582496 -1203.1388002640538 -1207.2755754923362 0 0 0
3772 252 7 2 -1883.9601775120163 -1176.277425668444 -1234.1014040560228 0 0 0
3775 252 10 1 -1935.7949040059552 -1180.7800673469828 -1201.2918905610766 0 0 0
3776 252 11 1 -1834.7172625798185 -1168.2524263890787 -1254.5146912246553 0 0 0
3774 252 9 0 -1769.055471363119 -1167.4713323702247 -1273.7052687638986 0 0 0
2662 178 7 2 -138.8474811949366 -850.3800925438827 -1211.9585024493404 0 0 0
2666 178 11 1 -94.39177179400383 -834.3130857213591 -1238.5265306340782 0 0 0
2664 178 9 0 -35.89219248358931 -812.7764904391503 -1258.219776406141 0 0 0
2670 178 15 0 -7.558517589658221 -771.2211959823876 -1239.0513959388322 0 0 0
1618 108 13 -0.5 -1544.4093090183273 -595.0691891466757 -1226.1672908289424 0 0 0
1806 121 6 -0.5 -2240.055564549967 -510.264824324662 -1259.8600257493972 0 0 0
1814 121 14 -1.5 -2201.93487881662 -488.354846763501 -1267.4122084556432 0 0 0
248 17 8 0 -1317.5619750802093 -495.8361284925183 -1222.5771047538085 0 0 0
1607 108 2 0 -1182.4877270098195 -507.1719475854759 -1232.2288007791858 0 0 0
916 62 1 0 -1006.6242920427246 -480.9444600795346 -1257.1022659753535 0 0 0
923 62 8 0 -1014.1231074100142 -499.8674307377527 -1213.8125324316093 0 0 0
241 17 1 0 -1320.7174444927805 -423.1912122899648 -1235.5043787370666 0 0 0
3121 209 1 0 -1266.3182184737916 14.8931419447075 -1218.8419277406942 0 0 0
3128 209 8 0 -1202.8300401918455 19.110383031388682 -1224.5386873488167 0 0 0
5059 338 4 0 -587.9256651689508 56.674945493455034 -1211.687021596761 0 0 0
654 44 9 0 -171.94715375147834 96.26723066197205 -1227.1604059845308 0 0 0
1711 115 1 0 -503.9872313729881 286.6052224982073 -1270.0839692919922 0 0 0
1715 115 5 0 -400.53677419257025 285.9371591085031 -1208.1014001037474 0 0 0
1718 115 8 0 -444.9900270995517 298.31073349282417 -1242.7896844173974 0 0 0
1054 71 4 0 -347.1299659755345 284.227157230166 -1205.1703785552209 0 0 0
1052 71 2 0 -376.04242085853065 332.9350648076103 -1209.7369335780631 0 0 0
1059 71 9 0 -452.2844634785786 433.59975260736127 -1217.5699328782864 0 0 0
1065 71 15 0 -416.32615915108465 383.08222313777793 -1221.0936363389123 0 0 0
1063 71 13 -0.5 -738.7927661721965 513.8531192043608 -1267.8086880029473 0 0 0
1057 71 7 2 -558.3286468710679 473.42830789526386 -1257.4322108835331 0 0 0
1061 71 11 1 -512.2171079131105 455.2774047283364 -1237.5219192641 0 0 0
1412 95 2 0 -1495.186802364312 652.8839030781165 -1205.6682992610865 0 0 0
4685 313 5 0 -2884.769116457215 722.788503758329 -1244.560840033648 0 0 0
4692 313 12 0 -2854.7430360513777 787.8235588647092 -1272.2516840896187 0 0 0
4690 313 10 1 -2809.8413543743627 811.0168346045839 -1235.9708282239656 0 0 0
4687 313 7 2 -2767.115163609334 840.5248654835208 -1202.5008482309443 0 0 0
4924 329 4 0 -1845.6483464411226 896.4370165121267 -1272.8016980817376 0 0 0
4655 311 5 0 -1384.51290619507 1044.714775300758 -1212.069847196534 0 0 0
4662 311 12 0 -1334.608462938426 983.5958373432587 -1202.1264063872409 0 0 0
4660 311 10 1 -1275.0229576038382 1006.8710661520702 -1204.8916955506816 0 0 0
4083 273 3 -1.5 -1180.883644152392 1037.051090099541 -1203.1501200048801 0 0 0
4658 311 8 0 -1448.25437848554 1091.8863048996004 -1232.1570749936664 0 0 0
4092 273 12 0 -1139.6991113211313 1063.486827918289 -1216.1895619610916 0 0 0
4090 273 10 1 -1078.0459138745603 1073.5910209249485 -1229.9982945838838 0 0 0
4665 311 15 0 -1070.155660332616 1118.3500154810165 -1208.9671447042924 0 0 0
4664 311 14 -1.5 -1007.6889084905547 1057.084964366177 -1210.9298537245954 0 0 0
4087 273 7 2 -1018.4798875879186 1082.3542158377027 -1241.1406634181849 0 0 0
5638 376 13 -0.5 -1010.28239287967 1107.3218035173197 -1214.285064888661 0 0 0
5628 376 3 -1.5 -993.7342466262987 1114.3473533894944 -1253.0306271449708 0 0 0
4091 273 11 1 -964.6134469658159 1089.10443392507 -1245.563194217743 0 0 0
4089 273 9 0 -898.1808687466096 1092.6441417482565 -1247.3526371321802 0 0 0
4086 273 6 -0.5 -846.0374941240714 1102.8971473508711 -1254.9782371038702 0 0 0
4903 327 13 -0.5 -827.1363239120263 1105.2797475652524 -1247.0938834863434 0 0 0
4095 273 15 0 -875.5917635443062 1113.2914680698013 -1227.1059834750201 0 0 0
4183 279 13 -0.5 -817.4452147312287 1106.6673217999607 -1247.281070189142 0 0 0
4173 279 3 -1.5 -778.6082151630168 1092.718590476447 -1259.6105874082612 0 0 0
4182 279 12 0 -735.0397337748792 1112.371103937909 -1250.6701758565903 0 0 0
5373 359 3 -1.5 -613.2667218790767 1115.567276740721 -1263.6619111137582 0 0 0
5382 359 12 0 -572.9454619090563 1120.2819478369859 -1242.9379414882005 0 0 0
4085 273 5 0 -1168.5512948676294 1129.5173873095391 -1207.5819993541434 0 0 0
4652 311 2 0 -1015.9573770471909 1161.206788771345 -1249.090619430731 0 0 0
4654 311 4 0 -956.1962734907243 1176.3125851521404 -1253.6167570144978 0 0 0
4094 273 14 -1.5 -808.6363726497025 1125.3053002851473 -1245.9613674316206 0 0 0
4893 327 3 -1.5 -818.6354690668379 1146.3979878714035 -1256.3274091454625 0 0 0
4902 327 12 0 -776.371520595848 1170.6990312629998 -1253.579200122176 0 0 0
4082 273 2 0 -776.1001915101692 1133.844990425239 -1214.4059780121333 0 0 0
4180 279 10 1 -689.2501927830472 1127.1572673503906 -1212.2010517507322 0 0 0
4900 327 10 1 -710.7399026580591 1176.6881235416936 -1252.365770580446 0 0 0
5383 359 13 -0.5 -643.6172110695335 1144.395989054351 -1271.3959737356965 0 0 0
5640 376 15 0 -674.7537095254447 1183.330837274491 -1208.52833873298 0 0 0
5631 376 6 -0.5 -651.5470209488311 1142.4619586132224 -1269.1454864860564 0 0 0
5639 376 14 -1.5 -612.5047664324771 1162.7924838359897 -1263.8679920714603 0 0 0
4897 327 7 2 -648.4425503606913 1178.3415492386023 -1251.6860236338164 0 0 0
4901 327 11 1 -595.1850356117471 1171.7825648377327 -1249.3653657563216 0 0 0
4899 327 9 0 -535.1826125454156 1166.7018070103225 -1231.7860784855102 0 0 0
4270 285 10 1 -479.1767401665378 1173.1591335763171 -1258.5649547538533 0 0 0
5380 359 10 1 -508.5347556189798 1135.5323417047252 -1247.8565819238584 0 0 0
4896 327 6 -0.5 -485.9010245705986 1144.625022367525 -1220.3066787642479 0 0 0
5377 359 7 2 -448.4901675892473 1145.667285250444 -1236.4269854066067 0 0 0
5381 359 11 1 -396.24815985769845 1148.9918412368422 -1225.185821554985 0 0 0
4267 285 7 2 -427.58768892180314 1181.0943266719826 -1226.0010364154455 0 0 0
4271 285 11 1 -378.9450183652686 1187.4117044687137 -1202.6022818418012 0 0 0
5379 359 9 0 -330.09101495609684 1155.4097054947042 -1224.006470964294 0 0 0
5376 359 6 -0.5 -281.89116418145574 1172.8476758334882 -1240.0031990631383 0 0 0
5384 359 14 -1.5 -239.28485651615352 1163.6671423071186 -1249.6024701568558 0 0 0
4363 291 13 -0.5 -2304.087401600406 1214.2249371332873 -1226.8023131833704 0 0 0
4353 291 3 -1.5 -2269.4940909141537 1239.1486603509582 -1229.0717561250435 0 0 0
4242 283 12 0 -2198.47950163364 1229.572970121686 -1221.6195412411782 0 0 0
4233 283 3 -1.5 -2239.9323494695145 1203.5538987456173 -1216.899145994432 0 0 0
4895 327 5 0 -797.9435714036736 1214.3652936440621 -1205.7013684167378 0 0 0
4905 327 15 0 -485.0122000591213 1202.8619929016204 -1216.8583723666138 0 0 0
4892 327 2 0 -411.7598589970123 1228.4564627390685 -1224.666794262283 0 0 0
4894 327 4 0 -381.6651859395886 1250.5097612146405 -1264.9826703266924 0 0 0
4355 291 5 0 -2268.8350595900806 1328.8317740591906 -1201.3852909569807 0 0 0
4235 283 5 0 -2240.7010237947056 1311.749425762907 -1262.6292574524325 0 0 0
4238 283 8 0 -2294.4798023341755 1367.1596590906788 -1274.9217575039659 0 0 0
4358 291 8 0 -2262.272205481737 1383.1594292826599 -1209.4558010886021 0 0 0
4231 283 1 0 -2331.1464421410737 1429.4418093865227 -1254.4051284559234 0 0 0
4351 291 1 0 -2292.0147229626286 1426.48031330505 -1225.6894676066206 0 0 0
3619 242 4 0 -45.171547852655515 -1439.6153684147414 -1138.0021703042453 0 0 0
2404 161 4 0 -2041.5970612646367 -1376.9835569054562 -1171.5295779785474 0 0 0
3617 242 2 0 -49.46544853152133 -1401.9602569949889 -1182.0319100348995 0 0 0
1163 78 8 0 -1402.027942590395 -1238.0402447361782 -1147.5598063706939 0 0 0
3768 252 3 -1.5 -2042.161952609359 -1182.5872403221874 -1179.735274285786 0 0 0
3777 252 12 0 -1993.6714242477208 -1173.891769087727 -1177.457863771701 0 0 0
1156 78 1 0 -1361.0964377710068 -1195.5331193951768 -1161.1101936998564 0 0 0
3770 252 5 0 -1989.0799116825133 -1106.4775835085227 -1131.4862831487385 0 0 0
2658 178 3 -1.5 -280.7163550204063 -907.5544164469277 -1146.979954038413 0 0 0
2667 178 12 0 -245.23160448901055 -877.2930961071271 -1150.9673565783235 0 0 0
2665 178 10 1 -190.19872885683023 -860.1000347858983 -1178.2216590125927 0 0 0
2660 178 5 0 -291.4831363313832 -807.0647022966189 -1146.700319442494 0 0 0
2663 178 8 0 -312.6637090005292 -743.0867957282421 -1152.622626392219 0 0 0
2656 178 1 0 -306.0420124347854 -706.843690098294 -1149.5826374230965 0 0 0
1608 108 3 -1.5 -1520.5784869004833 -597.4078713333658 -1190.012812052826 0 0 0
1617 108 12 0 -1478.819699388365 -569.5118348087956 -1183.0700283882275 0 0 0
1615 108 10 1 -1413.8539508819854 -568.8052663538724 -1175.2781554678888 0 0 0
1612 108 7 2 -1354.699730611159 -556.006744483693 -1162.816445185275 0 0 0
1616 108 11 1 -1304.2218828051932 -543.3829180033829 -1150.0572664289014 0 0 0
1614 108 9 0 -1241.3408016076626 -542.986157909382 -1128.2450250425459 0 0 0
1620 108 15 0 -1203.7207247966528 -532.5732759342235 -1153.9728369638008 0 0 0
245 17 5 0 -1289.5563733098413 -511.6078352633589 -1182.0563413958432 0 0 0
920 62 5 0 -991.4678549751854 -513.9041466469695 -1177.1904129425996 0 0 0
3384 226 9 0 -535.4921052028317 -191.03616804053155 -1130.9191798044778 0 0 0
3390 226 15 0 -473.98765097552894 -200.03357819639126 -1166.6016113030043 0 0 0
3381 226 6 -0.5 -491.4476971488574 -157.67669778900878 -1142.617728805227 0 0 0
5443 363 13 -0.5 -445.6034930830375 -164.26659676460892 -1164.6684091417296 0 0 0
3377 226 2 0 -397.2945328048183 -167.81143344492872 -1176.6809564689595 0 0 0
3389 226 14 -1.5 -466.36246394758933 -122.42050156653848 -1133.744018669736 0 0 0
5433 363 3 -1.5 -429.6163863494906 -139.71327751419503 -1134.0385952752986 0 0 0
3379 226 4 0 -376.5787783161416 -113.31372677140291 -1186.7274450738785 0 0 0
3125 209 5 0 -1143.765320559091 -21.820888252426183 -1171.7295615614112 0 0 0
3124 209 4 0 -784.1138816104055 -11.392280452674436 -1199.4286166774946 0 0 0
3122 209 2 0 -808.0629100234243 -17.736207624592065 -1158.6479078813059 0 0 0
660 44 15 0 -168.2055275793265 60.144919773749166 -1176.8261071354532 0 0 0
647 44 2 0 -156.4465846816152 2.119359454296001 -1131.8425252352458 0 0 0
5057 338 2 0 -591.435370866733 83.69286368638173 -1144.330489163598 0 0 0
651 44 6 -0.5 -157.07475608663594 115.65441827077994 -1178.6160350076586 0 0 0
659 44 14 -1.5 -154.19370589976862 105.71759568718728 -1135.61772397687 0 0 0
1723 115 13 -0.5 -401.2484447118725 197.5074691589325 -1194.3810648646242 0 0 0
1713 115 3 -1.5 -385.01916987505814 211.72331695816 -1157.1129165327425 0 0 0
1722 115 12 0 -372.26845633255795 258.13541667570433 -1143.9906288431241 0 0 0
1064 71 14 -1.5 -389.8546517090763 380.4982427893077 -1177.0345692381875 0 0 0
1056 71 6 -0.5 -422.883327148389 409.2881672962354 -1182.2180269167193 0 0 0
5161 345 1 0 -2306.081121981551 532.1042041365276 -1159.2091790313434 0 0 0
5168 345 8 0 -2251.963993606856 549.81216303868 -1189.6998607311925 0 0 0
4681 313 1 0 -2935.681697024029 620.3386724899183 -1165.9402671980026 0 0 0
4688 313 8 0 -2907.053686264214 664.984771645518 -1183.6270122818307 0 0 0
5165 345 5 0 -2210.2873309883794 604.7557172253377 -1129.2664415619106 0 0 0
1414 95 4 0 -1513.972124464206 666.5754642407193 -1148.9003934290308 0 0 0
4691 313 11 1 -2727.376437053793 859.7083672108712 -1171.7755726723008 0 0 0
4653 311 3 -1.5 -1369.2928066758961 959.5260310623805 -1175.2562884809001 0 0 0
4663 311 13 -0.5 -1406.4075575781458 968.0727063204424 -1155.1568488452078 0 0 0
4657 311 7 2 -1215.3096495332657 1020.8276480235875 -1192.7907213639003 0 0 0
4093 273 13 -0.5 -1183.2666225860937 997.828803594458 -1185.9639569293843 0 0 0
4661 311 11 1 -1162.3053794846282 1032.1139217746468 -1184.82972578182 0 0 0
4659 311 9 0 -1099.051025124937 1051.8437464566682 -1186.0866484873352 0 0 0
4656 311 6 -0.5 -1049.18066796298 1068.1030250539764 -1199.707556692653 0 0 0
4088 273 8 0 -1227.461494118833 1180.59743791967 -1189.1634408215753 0 0 0
4084 273 4 0 -735.3251113639604 1146.5221628146298 -1190.4520585266816 0 0 0
4177 279 7 2 -650.4852911860181 1135.853698411339 -1164.8646180152657 0 0 0
5375 359 5 0 -607.9634137478038 1159.2704915028696 -1171.3219459237403 0 0 0
4904 327 14 -1.5 -447.9128624732022 1149.7743258549835 -1197.217258827191 0 0 0
4269 285 9 0 -315.009199945151 1190.053398030559 -1179.6026634341642 0 0 0
5385 359 15 0 -274.4535763884988 1161.7089220593284 -1176.5432337924494 0 0 0
4243 283 13 -0.5 -2275.82168480347 1211.8187243568625 -1196.447501217536 0 0 0
4362 291 12 0 -2237.9315642163488 1263.640519070825 -1197.5137021300707 0 0 0
4360 291 10 1 -2180.7499090045644 1273.2283286295863 -1168.2577706760899 0 0 0
4240 283 10 1 -2142.5665395721694 1246.5184044550165 -1194.1921453979826 0 0 0
4357 291 7 2 -2123.730014845194 1271.3497580891506 -1144.7475784839326 0 0 0
4237 283 7 2 -2085.7643717198375 1268.6542366907945 -1180.3726493029967 0 0 0
4361 291 11 1 -2072.1066570887037 1266.9892965636589 -1130.71038310088 0 0 0
4081 273 1 0 -1236.2723842160522 1229.126810066262 -1194.5255623661035 0 0 0
4898 327 8 0 -850.7657749241757 1242.8715070752555 -1173.4735760719789 0 0 0
5627 376 2 0 -652.267709364639 1201.0677880725702 -1140.3649307606267 0 0 0
4266 285 6 -0.5 -269.07629158230736 1210.8929924058295 -1154.91743900215 0 0 0
4241 283 11 1 -2039.6332752903222 1292.8141637345605 -1165.4664888520315 0 0 0
4239 283 9 0 -1988.8782982934674 1316.0899332538218 -1133.5890320255774 0 0 0
4891 327 1 0 -874.4946888582316 1299.8868630326474 -1144.383859243848 0 0 0
4245 283 15 0 -1961.2411273845753 1363.4514917376177 -1165.1789549027735 0 0 0
4244 283 14 -1.5 -1902.331648364298 1358.3449953627194 -1132.7453469714353 0 0 0
4232 283 2 0 -1901.786859322858 1409.0099509100753 -1155.619107694485 0 0 0
4234 283 4 0 -1845.972350464004 1420.3966714686603 -1158.9831213655086 0 0 0
1160 78 5 0 -1433.8338577785887 -1255.7106936411112 -1066.2488915126485 0 0 0
3773 252 8 0 -1994.0021083782756 -1066.1459823061286 -1083.4036947160514 0 0 0
3766 252 1 0 -1964.6579683032514 -1039.5933796153295 -1054.4711745220293 0 0 0
2668 178 13 -0.5 -317.1486679912131 -902.4476966159962 -1124.8487781614097 0 0 0
5533 369 13 -0.5 -2649.0174326994675 -729.1687228278863 -1106.2861849296191 0 0 0
5523 369 3 -1.5 -2634.8380835154053 -688.8168741313593 -1103.1181812543496 0 0 0
5532 369 12 0 -2610.46136346016 -665.1459666359086 -1066.7503381428473 0 0 0
243 17 3 -1.5 -1319.8690431186378 -548.2615411302562 -1069.477976553751 0 0 0
1611 108 6 -0.5 -1199.0507249415127 -532.0831560296024 -1090.6989454607906 0 0 0
928 62 13 -0.5 -1053.856234157212 -545.8443689864038 -1068.8171308569881 0 0 0
918 62 3 -1.5 -1012.0930118329899 -553.1722158122096 -1064.6367269284829 0 0 0
927 62 12 0 -970.9398472688515 -526.4572037856188 -1080.4688411522907 0 0 0
1613 108 8 0 -1564.4983448209678 -465.7979596679129 -1073.1640893587157 0 0 0
1610 108 5 0 -1518.7251331980992 -512.1310840869141 -1103.485762604308 0 0 0
252 17 12 0 -1275.0807140481566 -523.7899685174414 -1074.2799694489295 0 0 0
250 17 10 1 -1214.0340617026213 -519.0228992022629 -1058.563546241352 0 0 0
1619 108 14 -1.5 -1158.79460098328 -514.6237456589147 -1083.4468496348893 0 0 0
255 17 15 0 -997.3617361483809 -481.6623426878099 -1058.2802722431068 0 0 0
925 62 10 1 -915.235101167469 -496.73717677357996 -1067.0290885190436 0 0 0
922 62 7 2 -857.4991751473523 -480.1413580931817 -1052.290124710924 0 0 0
242 17 2 0 -923.8363246594337 -430.09399931975685 -1066.2235176773847 0 0 0
919 62 4 0 -619.0507888671068 -391.0407844771271 -1050.8955286940095 0 0 0
244 17 4 0 -899.3932262146988 -366.3547510737079 -1057.712163011007 0 0 0
3385 226 10 1 -645.293817848436 -315.5326424886131 -1056.489061358965 0 0 0
3382 226 7 2 -605.5786761648255 -276.6689224381218 -1084.529495444031 0 0 0
3386 226 11 1 -576.2637673296514 -240.22673053157757 -1111.2753641893125 0 0 0
5431 363 1 0 -596.3702253096197 -238.9962666353759 -1070.025355069015 0 0 0
3133 209 13 -0.5 -1173.6536880793071 -110.3047619626074 -1107.5321378820365 0 0 0
3123 209 3 -1.5 -1135.0242281721703 -113.63217793968161 -1088.1534305949901 0 0 0
3132 209 12 0 -1098.560528633943 -81.8683467504302 -1080.6494367997464 0 0 0
5442 363 12 0 -413.9364691684109 -149.3849364410734 -1089.6690438844507 0 0 0
3130 209 10 1 -1039.6028360121452 -63.6142895068337 -1076.392085033668 0 0 0
3127 209 7 2 -982.4857788833082 -41.65456476002457 -1075.8440990466445 0 0 0
3131 209 11 1 -932.7518272371788 -21.825032156654764 -1070.3043478818386 0 0 0
5058 338 3 -1.5 -943.9625649807329 -24.75440736531296 -1054.4542023087006 0 0 0
3129 209 9 0 -869.5337915599202 -2.3394814342003922 -1076.3606104333562 0 0 0