LAMMPS data file via write_data, version 27 Jun 2024, timestep = 28160000, units = real

5730 atoms
15 atom types
5657 bonds
16 bond types
5730 angles
15 angle types

-3000 3000 xlo xhi
-1500 1500 ylo yhi
-1500 1500 zlo zhi

Masses

1 241.19
2 73.54000000000001
3 330.71
4 235.16
5 68.06999999999999
6 353.53
7 223.38
8 41.1
9 216.91
10 155.15
11 147.32
12 264.65
13 300.8
14 326.05
15 85.20999999999999

Pair Coeffs # lj/cut/coul/debye/gpu

1 0.71637 40.7505
2 0.665709 48.1397
3 1.15033 39.2216
4 0.726774 43.8077
5 0.514724 53.3428
6 1.17127 41.7847
7 1.2256 38.5601
8 0.675431 54.5696
9 1.26117 43.78
10 0.939007 42.5209
11 0.960667 41.1825
12 1.30988 48.0761
13 1.36645 37.7114
14 1.35529 39.2179
15 0.592003 47.2602

Bond Coeffs # harmonic

1 0.003 59.228
2 0.008 56.48
3 0.001 69.324
4 3.207 42.88
5 0.11 49.807
6 0.002 74.968
7 0.001 91.635
8 0.145 54.383
9 2.709 44.406
10 1.71 61.679
11 1.625 54.051
12 0.207 66.185
13 0.002 64.76
14 0.079 63.886
15 0.2 40
16 0.2 40

Angle Coeffs # harmonic

1 11.427 158.273
2 50.464 132.042
3 8.207 156.514
4 92.705 149.394
5 100 174.44
6 3.15 145.53
7 48.938 159.031
8 17.401 129.945
9 15.735 56.441
10 60 172.254
11 60.285 168.396
12 11.83 99.091
13 150 107.995
14 27.746 149.925
15 7.483 160.775

Atoms # full

3772 252 7 2 -1758.9345236806148 -1203.4435064757217 -1455.598657771232 0 0 0
3776 252 11 1 -1719.7709030093492 -1216.2292306393867 -1490.6232773893166 0 0 0
3766 252 1 0 -2071.778043589615 -1140.3575839818109 -1468.9155478810465 0 0 0
3770 252 5 0 -1942.3426549205576 -1138.5001177137 -1426.0649575129075 0 0 0
3773 252 8 0 -2007.3193526762088 -1113.5431944638765 -1483.0552956476588 0 0 0
1082 73 2 0 -2516.1988116164493 -1034.7092727289887 -1463.1182251491996 0 0 1
1814 121 14 -1.5 -2768.9624906404147 -607.7857982635596 -1440.7257447975383 0 0 0
5704 381 4 0 -513.1194402814089 -642.805807654166 -1465.3418860198915 0 0 1
1806 121 6 -0.5 -2741.4841540895095 -572.873507955457 -1436.1084520861843 0 0 0
2584 173 4 0 -1726.4196163827799 -406.6587304099846 -1430.4952035239608 0 0 1
2582 173 2 0 -1723.9343840188237 -375.0066028825146 -1483.2793347082134 0 0 1
965 65 5 0 -2731.2784305256946 -325.6582205803858 -1488.885432463561 0 0 0
2594 173 14 -1.5 -1589.9534704504122 -333.2105783576092 -1466.4361022685098 0 0 1
2586 173 6 -0.5 -1603.248997865286 -302.0467115343224 -1495.0599859629942 0 0 1
1801 121 1 0 -2827.4056376824797 -255.8820754713427 -1448.972273733018 0 0 0
2930 196 5 0 -2558.5002636943964 -248.7461483536602 -1436.6204138454702 0 0 0
2933 196 8 0 -2611.4871198972123 -274.9684779785218 -1491.9472340632408 0 0 0
1063 71 13 -0.5 -832.8723173144448 152.37201309627258 -1465.010637525157 0 0 0
1053 71 3 -1.5 -806.0505379000616 171.7493364544443 -1438.4704483770313 0 0 0
1062 71 12 0 -768.6663609377171 207.6336673882586 -1442.0736776568722 0 0 0
4927 329 7 2 -1822.2446881210583 497.6594427170228 -1492.9197522998488 0 0 0
1411 95 1 0 -1487.8684679918144 517.4345450378049 -1425.7155115155438 0 0 0
4931 329 11 1 -1826.006877160948 529.7823138514947 -1449.0469092384765 0 0 0
4480 299 10 1 -2053.1095040023965 1086.1289503039511 -1490.0858264889928 0 0 0
4477 299 7 2 -2037.3064775339778 1086.8162762162917 -1430.2528470599339 0 0 0
4352 291 2 0 -2099.8248723649285 1144.5007674634348 -1499.8912785272266 0 0 0
2412 161 12 0 -2283.7137430849043 1459.580776567701 -1466.8479868137372 0 -1 0
2407 161 7 2 -2290.227581380568 -1467.254550261682 -1361.119066866186 0 0 0
2558 171 8 0 -1309.8920234647921 -1276.609771332652 -1406.6509264694544 0 0 1
2559 171 9 0 -969.6147308699655 -1281.472867886704 -1354.839764283904 0 0 1
2551 171 1 0 -1375.2307489762015 -1266.3408040302363 -1417.5666996233213 0 0 1
2555 171 5 0 -1257.2412876679077 -1242.96275264938 -1382.7470893027726 0 0 1
2560 171 10 1 -1138.0529469328649 -1230.817644638572 -1388.0234171564673 0 0 1
2557 171 7 2 -1081.4827625378239 -1253.727058740611 -1381.9243913779417 0 0 1
2561 171 11 1 -1028.7334517583615 -1264.5044108693457 -1377.1241853679912 0 0 1
3777 252 12 0 -1845.469621439339 -1188.9924299453448 -1370.3812918104913 0 0 0
3775 252 10 1 -1798.1562140333128 -1192.0794823239512 -1410.3187610679793 0 0 0
2553 171 3 -1.5 -1215.5989353431492 -1153.211313695448 -1393.1087972770633 0 0 1
2562 171 12 0 -1190.0029207693815 -1195.913576617717 -1389.2505854823805 0 0 1
2563 171 13 -0.5 -1203.9718918625567 -1112.3895985614977 -1392.0926890961143 0 0 1
1084 73 4 0 -2515.5492652601793 -1019.9608782628517 -1403.1209493222455 0 0 1
1802 121 2 0 -2666.8058927923553 -635.7820785788058 -1356.8909756011524 0 0 0
1815 121 15 0 -2713.085856888393 -573.4076648746517 -1394.9651471636926 0 0 0
1809 121 9 0 -2728.6254935038705 -522.2468306232302 -1418.9199146870462 0 0 0
1811 121 11 1 -2728.7465860453563 -459.2398801007622 -1392.8700555000262 0 0 0
916 62 1 0 -915.3802903468406 -507.1327091803012 -1382.7941768091464 0 0 0
973 65 13 -0.5 -2774.237170403256 -376.42537281948927 -1383.320634055266 0 0 0
963 65 3 -1.5 -2732.876267673248 -381.1123878563656 -1373.2229885858853 0 0 0
1807 121 7 2 -2711.064609075362 -415.3074973690131 -1366.7064566827582 0 0 0
972 65 12 0 -2694.299554012227 -355.7514283027384 -1392.6068167502708 0 0 0
970 65 10 1 -2643.1842740661905 -321.50394226270066 -1372.9274723729852 0 0 0
1808 121 8 0 -2797.4985976127887 -225.1082665708218 -1412.472922575505 0 0 0
1805 121 5 0 -2741.2658119289813 -229.6518248502965 -1368.0249459827685 0 0 0
967 65 7 2 -2587.8272214749395 -299.2873386196259 -1355.2061793066523 0 0 0
1060 71 10 1 -715.3122426404663 231.5648303567417 -1413.8055106288978 0 0 0
1057 71 7 2 -669.1106195122327 261.57783688367135 -1387.3146122296428 0 0 0
1061 71 11 1 -628.2473768550692 283.7142338686273 -1359.4931309845886 0 0 0
1723 115 13 -0.5 -639.1849314758891 247.2276078676854 -1360.6971853374828 0 0 0
1065 71 15 0 -538.5763540360224 378.7613805293819 -1387.2984781410262 0 0 0
1052 71 2 0 -535.9263698521722 438.3503960126404 -1385.9694391858138 0 0 0
1721 115 11 1 -493.5485293938186 440.09005567984906 -1357.392318085484 0 0 0
1054 71 4 0 -506.2663828762159 497.2172206377619 -1368.7786210843435 0 0 0
1719 115 9 0 -451.4616298709586 481.0139553285238 -1388.8743477668288 0 0 0
1725 115 15 0 -383.49826149773315 478.27752549110863 -1372.4676148076694 0 0 0
1716 115 6 -0.5 -413.78810952417655 518.4139157509281 -1394.8752280106717 0 0 0
4929 329 9 0 -1825.2348301129832 553.9865307820817 -1388.8644894651413 0 0 0
1418 95 8 0 -1527.614491396857 535.7607863265127 -1376.0098192736712 0 0 0
1724 115 14 -1.5 -369.5300279821063 525.8203623843661 -1396.6820737032283 0 0 0
4365 291 15 0 -2067.1530773993395 1110.0012092251607 -1403.2657475152012 0 0 0
4244 283 14 -1.5 -2060.2106163438193 1063.3800644114463 -1404.8435569881929 0 0 0
4236 283 6 -0.5 -2082.0480023159685 1066.2445176762499 -1366.6704670541596 0 0 0
4359 291 9 0 -2065.2659607649653 1109.2488319863173 -1364.579546766777 0 0 0
4356 291 6 -0.5 -2026.7102985507354 1077.1109621913017 -1386.6297177202973 0 0 0
4481 299 11 1 -2028.6489156325295 1081.5641014201005 -1377.4604837599245 0 0 0
4364 291 14 -1.5 -2002.9641814301447 1069.0772399965358 -1423.6300840742044 0 0 0
4264 285 4 0 -319.3114871494006 1209.3140438378875 -1370.211057960602 0 0 0
2408 161 8 0 -2277.149918373196 1302.136863311855 -1360.787643416481 0 -1 0
2405 161 5 0 -2298.3516453168813 1351.3750247178255 -1423.1449593665216 0 -1 0
2410 161 10 1 -2288.959323834087 1499.9790343985655 -1413.6272726342665 0 -1 0
2411 161 11 1 -2297.1090398425486 -1444.0925033382193 -1312.7193616594036 0 0 0
2554 171 4 0 -920.7621473586755 -1428.6133209796824 -1282.0696579882424 0 0 1
2565 171 15 0 -943.6897582244605 -1304.7659344443139 -1294.4198906207605 0 0 1
3778 252 13 -0.5 -1876.9790936208872 -1244.3960368442115 -1313.7110073562335 0 0 0
3768 252 3 -1.5 -1870.635291764264 -1203.941504480048 -1327.8971172697627 0 0 0
2556 171 6 -0.5 -918.207176134718 -1270.3223601361976 -1339.1316683087457 0 0 1
2564 171 14 -1.5 -884.291462065689 -1242.538636068831 -1337.1547604347024 0 0 1
1804 121 4 0 -2643.783400968076 -664.0291944427402 -1313.3332201199437 0 0 0
5521 369 1 0 -2629.736340164853 -596.3455727402912 -1316.271979348325 0 0 0
5528 369 8 0 -2651.697938113423 -552.0365253581194 -1324.4071012048896 0 0 0
5525 369 5 0 -2695.2411477033565 -494.5580121538951 -1295.1007851757759 0 0 0
923 62 8 0 -868.733785427879 -492.5895555516853 -1339.3600574996303 0 0 0
5523 369 3 -1.5 -2717.0916093008373 -392.7920519892869 -1308.450698664345 0 0 0
5533 369 13 -0.5 -2694.7197430430556 -388.1922812277823 -1345.1361023628424 0 0 0
1810 121 10 1 -2687.6342974080767 -363.5876942328913 -1341.7068929392904 0 0 0
1812 121 12 0 -2665.46782567905 -303.945661629833 -1327.109708395732 0 0 0
646 44 1 0 -257.96213407029154 -333.54234621348246 -1313.538924035815 0 0 0
1803 121 3 -1.5 -2624.523920829805 -276.62788667037023 -1310.2487234310763 0 0 0
1813 121 13 -0.5 -2586.0233625950605 -268.7997676773173 -1327.1649669386322 0 0 0
2938 196 13 -0.5 -2613.8095119559102 -291.147165325995 -1326.636534331333 0 0 0
2928 196 3 -1.5 -2585.376521730775 -265.0582097436248 -1309.0852022449533 0 0 0
2937 196 12 0 -2551.2739081077207 -229.11377376818422 -1324.8544321237648 0 0 0
971 65 11 1 -2543.8720538315874 -275.7514056469201 -1335.4360729843265 0 0 0
969 65 9 0 -2502.516984032031 -233.27677848882504 -1306.1132601748695 0 0 0
2935 196 10 1 -2499.766538808649 -190.1612960135255 -1317.8224751592354 0 0 0
966 65 6 -0.5 -2457.6426595146045 -204.37216843490145 -1293.2704718836476 0 0 0
974 65 14 -1.5 -2425.0600292442427 -175.10420086924478 -1300.6652772354746 0 0 0
2932 196 7 2 -2452.9465727675865 -150.75551363809868 -1316.610900377592 0 0 0
975 65 15 0 -2499.687706597177 -146.761719617987 -1295.6986430869058 0 0 0
2936 196 11 1 -2409.024684319934 -119.20686185938577 -1321.1721598242411 0 0 0
2934 196 9 0 -2365.248892692478 -70.41198008254104 -1322.2671196591702 0 0 0
2931 196 6 -0.5 -2317.880036476194 -45.073135877438816 -1330.2008031874675 0 0 0
2940 196 15 0 -2323.5244963454793 -65.84851791721759 -1276.4974361257164 0 0 0
2939 196 14 -1.5 -2273.6755039394034 -45.267368764692506 -1329.4768969316099 0 0 0
1713 115 3 -1.5 -650.04312066692 286.94274218944616 -1348.4612957749503 0 0 0
1722 115 12 0 -617.1303723824866 317.00396222814373 -1324.810166788113 0 0 0
1059 71 9 0 -571.9927140635377 312.2990488545445 -1346.155987056604 0 0 0
1720 115 10 1 -574.2639335871444 363.589592024845 -1328.481307711369 0 0 0
1056 71 6 -0.5 -532.8114383449779 341.0672429908716 -1322.3967011340376 0 0 0
4922 329 2 0 -1837.9484210160633 423.5145611767849 -1275.2996003324597 0 0 0
1717 115 7 2 -532.5925559624675 406.4188100437135 -1342.8882643257257 0 0 0
1064 71 14 -1.5 -515.4230153843966 381.35749927780034 -1320.0911684152552 0 0 0
4935 329 15 0 -1835.2724169283217 507.1546813858693 -1329.508360573929 0 0 0
1413 95 3 -1.5 -1670.7552333850754 478.9501434293928 -1315.386747598092 0 0 0
1423 95 13 -0.5 -1640.131230895398 450.3276667112867 -1326.4266988275028 0 0 0
1712 115 2 0 -347.5576804560361 483.76819983266785 -1307.9678111898666 0 0 0
4926 329 6 -0.5 -1810.6778680791015 566.697692605901 -1342.059886807496 0 0 0
4934 329 14 -1.5 -1797.1308194544943 597.7754299479977 -1313.7239984723249 0 0 0
1422 95 12 0 -1671.6905451117152 526.8810807260555 -1315.8837152644105 0 0 0
1420 95 10 1 -1703.0717306310157 580.3173909067247 -1310.959451677551 0 0 0
1415 95 5 0 -1599.1626966273443 540.7807276834358 -1343.148948038376 0 0 0
1417 95 7 2 -1726.9298576693543 633.5248604096497 -1290.5007009255598 0 0 0
1412 95 2 0 -1764.7339135041477 850.2121657794269 -1276.3444262135554 0 0 0
1414 95 4 0 -1763.1056467904305 907.6006397133415 -1280.026338306356 0 0 0
4245 283 15 0 -2035.6531452313866 1049.9212003226714 -1330.2052725718365 0 0 0
4232 283 2 0 -1989.5770115155965 1033.6882761854952 -1324.0262490109694 0 0 0
4234 283 4 0 -1952.3584154948662 1004.639941324547 -1309.2562910880733 0 0 0
4239 283 9 0 -2098.4051732996677 1098.8942721162325 -1325.7179231805183 0 0 0
4479 299 9 0 -1999.652406219257 1084.604046243062 -1319.3897739920583 0 0 0
4476 299 6 -0.5 -1975.2037789893452 1104.067766563947 -1276.8546120190424 0 0 0
4241 283 11 1 -2090.1104558106035 1144.0758553555418 -1277.5173206988047 0 0 0
4361 291 11 1 -2091.598805593377 1153.2317589712786 -1318.4207335505341 0 0 0
4357 291 7 2 -2093.594942162311 1190.4873198251498 -1279.5055345540168 0 0 0
2401 161 1 0 -2245.719486262297 1250.6637425210931 -1338.4586208571864 0 -1 0
4262 285 2 0 -325.230607753347 1250.8177268509287 -1333.756534646448 0 0 0
4268 285 8 0 -641.4011170537862 1290.7423167856987 -1293.9250107751786 0 0 0
4261 285 1 0 -636.700248854576 1332.1390027444854 -1346.3992764766433 0 0 0
5384 359 14 -1.5 -343.09635545875693 1329.7843775869105 -1290.2135966567175 0 0 0
4275 285 15 0 -335.4771406160249 1281.4770941188624 -1278.8997278824788 0 0 0
2415 161 15 0 -2389.6945258891255 -1380.6809232100763 -1227.707344781932 0 0 0
2406 161 6 -0.5 -2326.7065631176097 -1366.0369711690316 -1230.104044715661 0 0 0
2409 161 9 0 -2310.8780619912795 -1407.2340786091315 -1260.6664259167674 0 0 0
2552 171 2 0 -936.5313956331502 -1360.2994104073116 -1274.8330500217373 0 0 1
2414 161 14 -1.5 -2325.088553233728 -1322.5375585231038 -1219.9709027802155 0 0 0
3856 258 1 0 -435.7191185106748 -1285.7696254375153 -1229.0141315468697 0 0 0
920 62 5 0 -820.1083530987936 -456.8289558357123 -1273.6049845459706 0 0 0
5532 369 12 0 -2700.9179110025507 -415.2117680160495 -1267.6059826527999 0 0 0
5530 369 10 1 -2675.0674701641224 -413.676766027791 -1208.9648015537837 0 0 0
254 17 14 -1.5 -922.052412242159 -405.3250610113813 -1207.0283256039693 0 0 0
653 44 8 0 -262.71530089980655 -312.56540716871285 -1251.2220593740096 0 0 0
650 44 5 0 -254.39866853981047 -235.45725857394035 -1225.9706182769642 0 0 0
658 44 13 -0.5 -184.0052788127586 -141.99347509590797 -1252.6014660141777 0 0 0
648 44 3 -1.5 -192.55775533002767 -115.57851160843593 -1219.4200192660198 0 0 0
962 65 2 0 -2514.5291970104468 -62.9168199803327 -1274.817440713668 0 0 0
964 65 4 0 -2508.497745030645 -24.133887691293356 -1241.332191222349 0 0 0
2927 196 2 0 -2296.329471236961 -59.116325467131844 -1215.5434814561104 0 0 0
1715 115 5 0 -597.2423958830287 268.9254654403301 -1251.8070207651506 0 0 0
4924 329 4 0 -1851.3752511745406 380.2216144838566 -1233.3229408696302 0 0 0
3016 202 1 0 -891.0465479247396 421.3095729752926 -1229.2479953042152 0 0 0
1714 115 4 0 -329.9905193349119 514.5708489599964 -1248.9578103943704 0 0 0
1421 95 11 1 -1750.5888103886784 676.9277151721718 -1269.8077835076326 0 0 0
1419 95 9 0 -1766.4683885143581 730.4429441866241 -1231.9641005835545 0 0 0
1425 95 15 0 -1771.3543592425945 789.1005663177486 -1251.6453349088333 0 0 0
1416 95 6 -0.5 -1771.683160151182 782.8541820514482 -1218.8333495144586 0 0 0
4485 299 15 0 -1994.003849094456 1039.2527643455337 -1259.5489944293745 0 0 0
4472 299 2 0 -1978.5400917470822 1022.3257555878143 -1204.0209338352843 0 0 0
4484 299 14 -1.5 -1978.4454631924787 1115.6669367505535 -1233.8512013040513 0 0 0
4237 283 7 2 -2089.2068439080863 1176.5063181031983 -1234.2067967179435 0 0 0
4360 291 10 1 -2096.673218062426 1234.969953875159 -1236.851665758396 0 0 0
4265 285 5 0 -632.9925550141296 1269.9897021165973 -1206.3419189952451 0 0 0
4185 279 15 0 -540.0275867422914 1252.9401929643082 -1220.0304729835514 0 0 0
4172 279 2 0 -475.37293279423847 1232.8151897937717 -1217.52587524315 0 0 0
4174 279 4 0 -420.61287674146985 1241.0912394070083 -1221.4914917897838 0 0 0
5381 359 11 1 -461.69599989898734 1283.2330917576505 -1202.6229401612384 0 0 0
5379 359 9 0 -399.7973240570659 1305.5641925118193 -1218.2906945797852 0 0 0
4266 285 6 -0.5 -314.6789889005206 1313.366606191679 -1220.7312727994665 0 0 0
5376 359 6 -0.5 -358.6467513705071 1315.5092838320354 -1251.9186541194576 0 0 0
5385 359 15 0 -365.8038121352168 1340.7176917840893 -1203.4130643457015 0 0 0
4274 285 14 -1.5 -290.9814746033204 1348.1358425799606 -1235.4212273210792 0 0 0
3617 242 2 0 -13.684178054750879 1479.908709414318 -1248.3814915916018 0 -1 0
3622 242 7 2 -204.48736338227292 -1432.7585022118135 -1152.3602507193211 0 0 0
3626 242 11 1 -155.12408112304303 -1451.19233530901 -1142.8215171992301 0 0 0
3624 242 9 0 -101.8827034132124 -1484.1828256666142 -1129.2570085706388 0 0 0
2402 161 2 0 -2448.106196479784 -1360.9720299710693 -1194.3023099949296 0 0 0
3860 258 5 0 -377.20710665818183 -1361.5732047308102 -1127.0815749418218 0 0 0
3627 242 12 0 -315.589159125164 -1380.1605942130807 -1159.3661722000638 0 0 0
3625 242 10 1 -259.6918711072448 -1405.5967220658392 -1153.7581159688546 0 0 0
3868 258 13 -0.5 -279.541785069935 -1353.192265865467 -1136.6788170549526 0 0 0
2404 161 4 0 -2487.8415599038894 -1322.3940764439542 -1198.9752609609568 0 0 0
3863 258 8 0 -379.61791060812453 -1304.2604754689387 -1193.5193378177835 0 0 0
3618 242 3 -1.5 -344.0162830217117 -1338.381580940493 -1161.8387922695094 0 0 0
3628 242 13 -0.5 -358.0207812225659 -1317.7529336436496 -1126.9659425283628 0 0 0
2662 178 7 2 -23.621627093922445 -815.2077059311122 -1147.4052895437405 0 0 0
2656 178 1 0 -226.74530580034218 -679.5551849330699 -1188.4301621563839 0 0 0
1606 108 1 0 -1547.7593663997413 -575.7756252388888 -1150.4377571914426 0 0 0
1613 108 8 0 -1502.0373668121001 -591.9301694290953 -1135.2458239186717 0 0 0
1614 108 9 0 -1200.249053314894 -554.2743733734552 -1145.992380234758 0 0 0
1620 108 15 0 -1203.265050530962 -498.8109123025672 -1161.1845928092725 0 0 0
1611 108 6 -0.5 -1157.5338265353091 -522.5211186513108 -1165.3622256145761 0 0 0
1619 108 14 -1.5 -1114.4948652191836 -518.7721676824541 -1172.870051788537 0 0 0
247 17 7 2 -1092.0795130647475 -504.753018728414 -1141.4015188655576 0 0 0
251 17 11 1 -1044.4923213665338 -495.68879180962006 -1166.3525159591027 0 0 0
249 17 9 0 -990.9799770327484 -466.4564135371729 -1193.6052425573866 0 0 0
255 17 15 0 -913.7720383455822 -483.53659885478237 -1173.4908653377609 0 0 0
242 17 2 0 -850.1814443182215 -478.31562997512924 -1153.8429619986591 0 0 0
244 17 4 0 -799.7976887551694 -473.29195601943167 -1176.0065107242956 0 0 0
5527 369 7 2 -2650.5969077182085 -410.8112604483279 -1152.7901156781945 0 0 0
1607 108 2 0 -1250.6775548998246 -405.1634034081794 -1153.1915994827623 0 0 0
246 17 6 -0.5 -948.3181109149529 -438.06310283685497 -1193.9622377245696 0 0 0
928 62 13 -0.5 -916.0633182809955 -423.356860912337 -1169.4500410660305 0 0 0
927 62 12 0 -830.5179353189899 -435.35762473685355 -1186.285732125038 0 0 0
918 62 3 -1.5 -879.9926698828394 -446.06164911764034 -1177.325944037178 0 0 0
925 62 10 1 -773.5434479847651 -415.18325668855584 -1160.624372150981 0 0 0
241 17 1 0 -1293.9513683882087 -368.10784846050063 -1166.9242063430888 0 0 0
1609 108 4 0 -1251.025209795021 -351.6042523539032 -1155.3120498121004 0 0 0
5431 363 1 0 -493.5309025004362 -259.06054719765547 -1137.8294883525136 0 0 0
3121 209 1 0 -1350.308343486186 -102.40200318835785 -1182.6567776729996 0 0 0
3128 209 8 0 -1306.4484497481749 -93.16861106762452 -1173.8237367997408 0 0 0
657 44 12 0 -200.04924474082273 -120.99108223161694 -1171.2403821294067 0 0 0
2929 196 4 0 -2292.8318898063476 -49.915111149803245 -1163.4299325695624 0 0 0
1718 115 8 0 -584.8011261636624 272.1247650765241 -1164.7651679553862 0 0 0
1711 115 1 0 -561.4931143018512 240.7847960986621 -1136.4059144268558 0 0 0
3023 202 8 0 -836.8184253375538 414.3900259092272 -1178.2103713695262 0 0 0
3030 202 15 0 -501.31624418829483 481.2031354202573 -1126.673298674328 0 0 0
3017 202 2 0 -446.13958656457226 520.9307803982821 -1142.018128661291 0 0 0
1424 95 14 -1.5 -1776.6810981036742 814.0294625892819 -1188.0926728689747 0 0 0
4066 272 1 0 -2776.1812072667426 1041.0995433736853 -1127.2552413037718 0 0 0
5164 345 4 0 -2104.5158784774803 980.3718352109677 -1154.5183335246652 0 0 0
4474 299 4 0 -1996.8059731244325 992.4245605970304 -1156.857175374267 0 0 0
5633 376 8 0 -998.2336140403737 1095.8890923185838 -1133.2107711587128 0 0 0
5626 376 1 0 -1030.207213636033 1124.681401701655 -1172.4821571671212 0 0 0
4351 291 1 0 -2326.8988845351605 1192.951559973299 -1147.3118329876772 0 0 0
4900 327 10 1 -710.1424737391679 1158.6812636488692 -1129.2360116494656 0 0 0
4177 279 7 2 -698.2253219745438 1195.444888927559 -1149.2624429758641 0 0 0
4897 327 7 2 -654.1580255968399 1174.7091131877676 -1149.5459155718058 0 0 0
5639 376 14 -1.5 -621.6963558169566 1196.7534566906302 -1144.5095631952743 0 0 0
5631 376 6 -0.5 -659.648230777548 1182.34614758141 -1126.660993478173 0 0 0
4358 291 8 0 -2275.5793892167617 1226.3874763759218 -1141.876839790716 0 0 0
4355 291 5 0 -2190.2090760632964 1250.4330880344346 -1128.045568927258 0 0 0
4242 283 12 0 -2107.547056850287 1253.387485907378 -1134.5865430460626 0 0 0
4240 283 10 1 -2100.043136094496 1214.6267741604902 -1186.6043695443554 0 0 0
4362 291 12 0 -2097.964805333206 1271.8357662708306 -1184.1419711036049 0 0 0
4901 327 11 1 -609.0114653694013 1200.6880440345876 -1167.1424421723125 0 0 0
4181 279 11 1 -651.8850744791818 1213.3535250053314 -1170.7794132703243 0 0 0
5382 359 12 0 -624.07723246756 1256.866776237656 -1138.7705037473927 0 0 0
4179 279 9 0 -595.969283077217 1244.4301744660577 -1178.4738593651518 0 0 0
4899 327 9 0 -553.4039199003181 1227.438343964567 -1182.2068402003692 0 0 0
4272 285 12 0 -582.0124192673246 1227.2804344095873 -1135.6710571155998 0 0 0
5380 359 10 1 -564.9611246367887 1267.4538087591438 -1153.865157743123 0 0 0
4176 279 6 -0.5 -551.6842435431873 1268.591397300724 -1162.0262687404827 0 0 0
4270 285 10 1 -521.0240707170275 1240.9492098618316 -1143.9558389550666 0 0 0
4267 285 7 2 -466.8065177812931 1267.526143570792 -1156.3683686151057 0 0 0
4896 327 6 -0.5 -509.1089635322454 1261.6016717911455 -1180.9278288861228 0 0 0
5377 359 7 2 -510.2811078654459 1273.6868776978367 -1181.7605558566104 0 0 0
4235 283 5 0 -2192.3154417036785 1333.5564850073388 -1169.260842982851 0 0 0
4353 291 3 -1.5 -2071.9673683290907 1286.578411469817 -1146.353036514729 0 0 0
4184 279 14 -1.5 -527.7221779575573 1305.5469400251059 -1163.1794086528319 0 0 0
4904 327 14 -1.5 -471.29871472046966 1280.6561772140212 -1196.724432755584 0 0 0
4271 285 11 1 -417.6224165778033 1282.4269647468964 -1172.7274469937452 0 0 0
4269 285 9 0 -356.27915747045296 1294.1115053436772 -1192.192768669985 0 0 0
4238 283 8 0 -2222.1966245337944 1399.4999050601036 -1180.740805968217 0 0 0
5372 359 2 0 -299.5524184897033 1355.9039749434332 -1191.514961127753 0 0 0
5374 359 4 0 -259.9182052139297 1395.3684798971415 -1195.628416960069 0 0 0
4231 283 1 0 -2226.9238643937333 1449.4459649251737 -1152.0192335868983 0 0 0
3630 242 15 0 -63.47005745902862 1490.7227689378701 -1173.823102331837 0 -1 0
3629 242 14 -1.5 -41.40596563367096 1442.1244269217834 -1138.2088014187814 0 -1 0
3616 242 1 0 -515.9002401325415 -1463.2356445863486 -1057.409249748477 0 0 0
3623 242 8 0 -465.47404226425573 -1474.324887660077 -1055.284406347865 0 0 0
3620 242 5 0 -404.6912428974675 -1448.8126332311479 -1095.1654484388375 0 0 0
3867 258 12 0 -327.2363850488631 -1401.2550534845932 -1090.0054096202205 0 0 0
3858 258 3 -1.5 -291.3442093821307 -1391.4833675456614 -1121.16930318945 0 0 0
1318 88 13 -0.5 -145.81861224541225 -910.7185043416276 -1088.8198175976606 0 0 0
1308 88 3 -1.5 -122.3308342195908 -918.2324356624315 -1053.8918721987966 0 0 0
2668 178 13 -0.5 -168.4661908272275 -897.4344812368508 -1057.0700531255764 0 0 0
2658 178 3 -1.5 -173.16033921233938 -860.98633426904 -1079.1116626230182 0 0 0
2667 178 12 0 -135.6598540054555 -838.4104389579893 -1102.0346695268302 0 0 0
1618 108 13 -0.5 -1375.9254317319753 -779.1124100021367 -1054.066760021444 0 0 0
2660 178 5 0 -183.04020419132047 -761.5432940201692 -1095.9427476735702 0 0 0
2665 178 10 1 -77.94162871476695 -824.2641162819486 -1121.832428582248 0 0 0
2663 178 8 0 -238.26493226257298 -714.5296332273599 -1123.430399888692 0 0 0
1610 108 5 0 -1453.6666263600227 -641.0343988000461 -1063.8929221613053 0 0 0
1615 108 10 1 -1319.269892476083 -656.6295191270061 -1060.5782934154079 0 0 0
1612 108 7 2 -1272.7627384332764 -627.3112410767617 -1088.5289122097342 0 0 0
253 17 13 -0.5 -1242.063765048057 -600.0287379815529 -1083.2357354830774 0 0 0
1616 108 11 1 -1236.8382271983453 -599.8033918505818 -1118.6171003551701 0 0 0
243 17 3 -1.5 -1238.4228224803696 -556.7897542845375 -1082.481128979107 0 0 0
252 17 12 0 -1209.7372113394845 -522.154443173923 -1106.5713456222272 0 0 0
250 17 10 1 -1148.9932714529064 -509.1343559372972 -1119.1553773943892 0 0 0
5531 369 11 1 -2636.477060812119 -408.82503199786316 -1100.2764866975199 0 0 0
248 17 8 0 -1277.6931422067298 -379.8182933330822 -1110.5907189505317 0 0 0
245 17 5 0 -1262.5342936153809 -448.308161939383 -1099.2989960004056 0 0 0
922 62 7 2 -726.4389340966724 -402.4647807994384 -1122.8484651176682 0 0 0
3388 226 13 -0.5 -742.3979625362551 -386.65005070495033 -1089.6102055097608 0 0 0
926 62 11 1 -685.7819728776992 -391.9769307466808 -1087.6743058840282 0 0 0
3378 226 3 -1.5 -717.54299899734 -381.20749712003584 -1055.1361605410748 0 0 0
5061 338 6 -0.5 -775.4635633373322 -300.21237254127846 -1052.0032662378017 0 0 0
5069 338 14 -1.5 -753.1623105772682 -338.402146632327 -1056.393970950143 0 0 0
3124 209 4 0 -831.4887360005573 -239.128276312852 -1055.5539348452912 0 0 0
3376 226 1 0 -855.311745052314 -261.4951957357378 -1079.6865940790497 0 0 0
3383 226 8 0 -795.1641139115738 -246.05741140720284 -1098.365134020233 0 0 0
3380 226 5 0 -734.3242575440541 -277.9045680242948 -1078.546562592585 0 0 0
5438 363 8 0 -553.667742583105 -235.66163116786555 -1107.492172720184 0 0 0
5068 338 13 -0.5 -1069.3422444750606 -163.34667479704476 -1051.3121340248374 0 0 0
652 44 7 2 -152.27129172640963 -155.2387924184095 -1057.3509232571923 0 0 0
3125 209 5 0 -1253.5562129111897 -123.53347851898937 -1123.7189318990415 0 0 0
655 44 10 1 -177.53836871863726 -140.04203091472758 -1111.8168876310147 0 0 0
1292 87 2 0 -791.9186477105575 336.22140897494444 -1077.6032381774878 0 0 0
1294 87 4 0 -735.6034904065536 329.54504314211806 -1099.5496871433115 0 0 0
3020 202 5 0 -813.7531399477466 403.6969657846343 -1092.3380599786408 0 0 0
2399 160 14 -1.5 -612.9112726026284 390.9800036885354 -1069.9050755340386 0 0 0
3022 202 7 2 -638.3062820998246 418.3200618963157 -1055.2257710571594 0 0 0
3026 202 11 1 -593.380682032502 442.34408371984404 -1073.0571965372599 0 0 0
2387 160 2 0 -590.7274304844667 491.807125099897 -1070.673018910039 0 0 0
3024 202 9 0 -548.9359613899048 484.46102872349115 -1096.3195897884893 0 0 0
3021 202 6 -0.5 -509.66253280265397 523.5345055930175 -1090.7556624792605 0 0 0
5161 345 1 0 -1880.8979538782692 567.9585724715473 -1094.6402643606673 0 0 0
5168 345 8 0 -1911.3515581181139 599.6955684158098 -1078.6813023255104 0 0 0
2389 160 4 0 -561.1322063099037 542.5481519459378 -1077.4789533560868 0 0 0
3029 202 14 -1.5 -467.02694081144807 534.6609224740974 -1092.8978232673267 0 0 0
3019 202 4 0 -408.96976150694513 543.8368599977115 -1121.5286260629582 0 0 0
4663 311 13 -0.5 -1197.9585426450058 746.0236756691318 -1124.4692012473242 0 0 0
4653 311 3 -1.5 -1197.0509542035913 768.4704748602717 -1087.9339121560306 0 0 0
4662 311 12 0 -1166.4534823685444 799.5044742270542 -1064.9649381938539 0 0 0
4660 311 10 1 -1126.9750130902296 849.9504928453209 -1067.9233603474754 0 0 0
4657 311 7 2 -1081.6040495683496 891.4198064369457 -1070.2516358947512 0 0 0
5162 345 2 0 -2049.2016245043324 957.0215230913859 -1122.6142191992683 0 0 0
5175 345 15 0 -2003.0001986133223 936.545453966047 -1055.6373827425339 0 0 0
4661 311 11 1 -1037.9509538999043 923.1810323643208 -1075.2577668771683 0 0 0
4659 311 9 0 -993.6099187118151 968.9122727182154 -1063.694356093742 0 0 0
4073 272 8 0 -2726.2857085577016 997.0833126440921 -1080.7947689620134 0 0 0
4665 311 15 0 -930.8191916930463 991.4871945956286 -1084.2745536819693 0 0 0
4652 311 2 0 -893.1959404409504 1040.240105643994 -1097.8714832901642 0 0 0
5630 376 5 0 -965.1092048317114 1097.6175122884645 -1090.2372384735097 0 0 0
4654 311 4 0 -867.5993566463828 1099.760212061892 -1077.4361745254082 0 0 0
4903 327 13 -0.5 -828.0634972918652 1114.1204859707311 -1055.730422880202 0 0 0
4893 327 3 -1.5 -803.5518462025453 1113.6199562454972 -1091.047010951923 0 0 0
4173 279 3 -1.5 -834.0534362548996 1140.0411870684823 -1064.6000763307907 0 0 0
4902 327 12 0 -760.6488325117906 1137.6553710205299 -1096.806455354479 0 0 0
4182 279 12 0 -809.0391311612427 1166.4426662499914 -1095.6263740387537 0 0 0
4180 279 10 1 -748.1678578906283 1179.5373584738968 -1117.363265348051 0 0 0
5636 376 11 1 -741.9165785134212 1132.7646351751569 -1055.2505662521949 0 0 0
5634 376 9 0 -691.426061181242 1159.2248589079884 -1086.239931264212 0 0 0
5383 359 13 -0.5 -653.9370453549442 1182.38599835297 -1109.6267680319131 0 0 0
4363 291 13 -0.5 -2052.582345710823 1261.8709556692259 -1117.4004919211131 0 0 0
4175 279 5 0 -865.1380542824637 1264.6287982122678 -1066.820165992258 0 0 0
2176 146 1 0 -831.7886879517025 1209.5204171708979 -1066.4158549083666 0 0 0
4273 285 13 -0.5 -658.4144847038132 1202.9422383159822 -1121.7117286029618 0 0 0
4263 285 3 -1.5 -617.1541330984404 1209.8682849364955 -1111.7416069803066 0 0 0
5640 376 15 0 -658.9989231189124 1212.455125185921 -1067.3433261507457 0 0 0
5373 359 3 -1.5 -658.9572288948183 1222.8161200031157 -1121.4980694689152 0 0 0
4233 283 3 -1.5 -2086.8612738762777 1282.7511364859101 -1100.60646181106 0 0 0
4243 283 13 -0.5 -2047.4536132004991 1290.7542563571612 -1087.8149796649304 0 0 0
4178 279 8 0 -890.6021639436226 1316.433557230922 -1075.745027270193 0 0 0
5375 359 5 0 -654.4555510877982 1334.6184545098795 -1085.533528568815 0 0 0
4905 327 15 0 -526.5053672943786 1285.4432024442813 -1123.9258634920648 0 0 0
4892 327 2 0 -476.9902828697007 1346.5971192568857 -1088.0771135932669 0 0 0
4171 279 1 0 -857.4780288239571 1376.8306040865634 -1061.1305900295895 0 0 0
4894 327 4 0 -470.01648332854313 1397.5337735636729 -1067.7870282595522 0 0 0
3621 242 6 -0.5 -66.54717048922484 1475.9733718532361 -1124.1043367677976 0 -1 0