LAMMPS data file via write_data, version 27 Jun 2024, timestep = 8960000, units = real

5730 atoms
15 atom types
5477 bonds
16 bond types
5730 angles
15 angle types

-3000 3000 xlo xhi
-1500 1500 ylo yhi
-1500 1500 zlo zhi

Masses

1 241.19
2 73.54000000000001
3 330.71
4 235.16
5 68.06999999999999
6 353.53
7 223.38
8 41.1
9 216.91
10 155.15
11 147.32
12 264.65
13 300.8
14 326.05
15 85.20999999999999

Pair Coeffs # lj/cut/coul/debye/gpu

1 0.71637 40.7505
2 0.665709 48.1397
3 1.15033 39.2216
4 0.726774 43.8077
5 0.514724 53.3428
6 1.17127 41.7847
7 1.2256 38.5601
8 0.675431 54.5696
9 1.26117 43.78
10 0.939007 42.5209
11 0.960667 41.1825
12 1.30988 48.0761
13 1.36645 37.7114
14 1.35529 39.2179
15 0.592003 47.2602

Bond Coeffs # harmonic

1 0.003 59.228
2 0.008 56.48
3 0.001 69.324
4 3.207 42.88
5 0.11 49.807
6 0.002 74.968
7 0.001 91.635
8 0.145 54.383
9 2.709 44.406
10 1.71 61.679
11 1.625 54.051
12 0.207 66.185
13 0.002 64.76
14 0.079 63.886
15 0.2 40
16 0.2 40

Angle Coeffs # harmonic

1 11.427 158.273
2 50.464 132.042
3 8.207 156.514
4 92.705 149.394
5 100 174.44
6 3.15 145.53
7 48.938 159.031
8 17.401 129.945
9 15.735 56.441
10 60 172.254
11 60.285 168.396
12 11.83 99.091
13 150 107.995
14 27.746 149.925
15 7.483 160.775

Atoms # full

2410 161 10 1 -2309.6058915961307 -1498.65466932224 -1437.2260197857274 0 0 0
1809 121 9 0 -2344.7878334079523 -607.9589983727911 -1461.599880131909 0 0 0
1806 121 6 -0.5 -2305.922319413088 -614.6172691262269 -1496.5755675304304 0 0 0
1811 121 11 1 -2405.765905376004 -591.6746034978464 -1446.3639450834548 0 0 0
1807 121 7 2 -2455.7798783033395 -580.9560251904152 -1427.5152422102574 0 0 0
1815 121 15 0 -2285.232513444308 -567.1937151839577 -1463.4990710314144 0 0 0
1802 121 2 0 -2249.0805109707594 -519.6767156441315 -1450.5694632851335 0 0 0
1804 121 4 0 -2220.273557676548 -475.42076155208036 -1465.9563324580686 0 0 0
2586 173 6 -0.5 -1688.4883522233501 -416.59713905281143 -1465.880088946459 0 0 1
2594 173 14 -1.5 -1661.4304677763932 -412.49652399270377 -1430.6338692979596 0 0 1
2595 173 15 0 -1658.7309919246472 -368.72993571768654 -1464.8148237631742 0 0 1
2930 196 5 0 -2570.001039789507 -252.91783332549696 -1434.4651259052127 0 0 0
1074 72 9 0 -427.1033864877544 -228.65088330116996 -1488.7116231840257 0 0 1
968 65 8 0 -2819.584983330627 -214.1611171182844 -1441.6302137727591 0 0 0
1071 72 6 -0.5 -413.38526205194046 -195.3691056503564 -1450.5193091803144 0 0 1
1080 72 15 0 -358.0717854795917 -215.72192143479282 -1494.887236077308 0 0 1
657 44 12 0 -227.12502263287527 126.08536969021799 -1470.9451036840073 0 0 0
4932 329 12 0 -1848.5573451901655 511.27130109701335 -1484.8434807745753 0 0 0
1055 71 5 0 -649.9124529041102 478.7753557803708 -1462.6679886319444 0 0 0
4930 329 10 1 -1868.3451630986378 544.6838685590376 -1435.680017182251 0 0 0
1418 95 8 0 -1756.2340640001694 562.8427800687031 -1458.9288852465563 0 0 0
1415 95 5 0 -1694.2749859899964 540.4337294811061 -1427.0042399239294 0 0 0
4480 299 10 1 -2144.0225102245736 999.3392658700329 -1481.7951751252313 0 0 0
4477 299 7 2 -2090.8462226741194 1010.4154648005651 -1451.3595335712405 0 0 0
4472 299 2 0 -1869.5552507837187 1032.6888635039763 -1429.0953747157837 0 0 0
4474 299 4 0 -1847.2504557129384 1038.9199111370924 -1478.3386142542352 0 0 0
4081 273 1 0 -1174.1942236019834 1093.2847695477833 -1459.8810873388318 0 0 0
2413 161 13 -0.5 -2409.44340346845 1407.0102356873774 -1443.5489971187808 0 -1 0
2403 161 3 -1.5 -2382.92613837494 1424.6457433803207 -1472.0796809031388 0 -1 0
2412 161 12 0 -2351.582788468104 1462.5919406061107 -1467.3300580687962 0 -1 0
2407 161 7 2 -2265.6314467138377 -1467.680470125149 -1409.401454608573 0 0 0
2411 161 11 1 -2222.393647148885 -1442.5504225476816 -1389.475750184091 0 0 0
2409 161 9 0 -2163.336904933336 -1413.4673368684703 -1381.4200640982956 0 0 0
2406 161 6 -0.5 -2112.616544008085 -1403.3625312205536 -1364.8977188695305 0 0 0
2415 161 15 0 -2144.326148758533 -1348.508629672431 -1357.518322253835 0 0 0
3771 252 6 -0.5 -1709.3879621934248 -1127.2560902727864 -1367.3289640003497 0 0 0
3779 252 14 -1.5 -1670.288578740454 -1127.489545961298 -1387.589621744602 0 0 0
3616 242 1 0 -262.3849997448034 -1113.9828255748728 -1362.084071328563 0 0 0
2659 178 4 0 -24.676726050961182 -687.0353134839683 -1377.8730980682546 0 0 0
1813 121 13 -0.5 -2625.784359923113 -628.1808074600609 -1381.8701310344795 0 0 0
1812 121 12 0 -2563.8964692649192 -575.9834637829739 -1368.0663357891292 0 0 0
1803 121 3 -1.5 -2606.370456660802 -598.177175806265 -1358.5801638074865 0 0 0
1810 121 10 1 -2510.1154217148746 -575.9093452341345 -1400.457147918407 0 0 0
973 65 13 -0.5 -2795.1013422278274 -398.78241700074204 -1373.7665274121862 0 0 0
2582 173 2 0 -1631.3408671154054 -382.90924334417906 -1397.3695222527908 0 0 1
965 65 5 0 -2816.84376048509 -269.55174238233775 -1401.195357070171 0 0 0
2937 196 12 0 -2525.3807610897156 -278.23752993247194 -1354.5971156265284 0 0 0
2927 196 2 0 -2217.8076008597823 -159.81357697924335 -1362.0930547895643 0 0 0
2929 196 4 0 -2164.6165461194673 -155.76249026993037 -1379.9481805391695 0 0 0
1079 72 14 -1.5 -384.7393578446917 -184.03616250060145 -1418.4845605984265 0 0 1
652 44 7 2 -173.41010889213607 68.01933160057526 -1369.99570168919 0 0 0
655 44 10 1 -198.23279222200583 96.51136550850927 -1418.5076888834394 0 0 0
1711 115 1 0 -371.25941361699813 185.83432945418562 -1375.35906946301 0 0 0
1423 95 13 -0.5 -1700.5028752994601 404.76045283712574 -1393.2525747860009 0 0 0
1413 95 3 -1.5 -1661.267975673019 423.26873456060144 -1396.0643993953556 0 0 0
1422 95 12 0 -1641.3175505525978 464.74002910275254 -1379.7891708697514 0 0 0
4927 329 7 2 -1884.6743119600853 586.9828274243097 -1393.5960550424022 0 0 0
4931 329 11 1 -1899.5683652619718 617.900388550023 -1352.2020623923927 0 0 0
4481 299 11 1 -2048.902851038906 1019.4982051455349 -1419.8027885886454 0 0 0
4479 299 9 0 -1997.2971691685143 1017.6540750343729 -1379.8633273558014 0 0 0
4476 299 6 -0.5 -1951.1042099882516 1004.753876044119 -1357.7603122782339 0 0 0
4485 299 15 0 -1940.9932081845056 1033.1387234084646 -1392.6895300063188 0 0 0
4085 273 5 0 -1091.7304554040566 1012.6228245464928 -1379.6687573959632 0 0 0
4654 311 4 0 -984.6054618529007 1028.4571362438533 -1405.6205803716418 0 0 0
4652 311 2 0 -1028.2260792340242 1028.2710940553914 -1371.2741845126802 0 0 0
4088 273 8 0 -1122.3128835169284 1071.8538935201884 -1421.7461251416594 0 0 0
5626 376 1 0 -1135.5227418705788 1193.3837418464143 -1403.210075129645 0 0 0
5633 376 8 0 -1068.6019935522675 1182.8423027922563 -1379.2329479131263 0 0 0
4234 283 4 0 -1866.374385761218 1265.0557005468022 -1355.7651107898412 0 0 0
4231 283 1 0 -2223.4348100172338 1275.2325805103333 -1401.039977765818 0 0 0
2414 161 14 -1.5 -2080.5417199310523 -1409.4366209228958 -1333.4058711618368 0 0 0
2402 161 2 0 -2141.2220714338637 -1293.2016978304675 -1317.880306197228 0 0 0
3620 242 5 0 -316.16044827316585 -1223.5055736630616 -1279.6640950337235 0 0 0
3776 252 11 1 -1797.1809702194796 -1168.159789225253 -1293.9716253505126 0 0 0
3774 252 9 0 -1748.6398545762427 -1154.5092548366079 -1339.6742385625894 0 0 0
3780 252 15 0 -1675.5385704024413 -1139.0550641633702 -1327.0056414256924 0 0 0
3767 252 2 0 -1594.0696330513415 -1125.160484070289 -1280.3041195715375 0 0 0
3623 242 8 0 -307.45520376313976 -1157.3805057681357 -1330.6937288560607 0 0 0
2669 178 14 -1.5 -0.7991682431324317 -872.3202382826825 -1311.674935405878 0 0 0
2661 178 6 -0.5 -41.82592395185962 -857.7175462773943 -1306.3175645008223 0 0 0
2670 178 15 0 -46.19376151727373 -775.4851941088607 -1297.4198083690028 0 0 0
2657 178 2 0 -51.54121646943876 -731.5021765201578 -1347.1713094061863 0 0 0
1805 121 5 0 -2570.928497243507 -468.60128699074454 -1314.842254058845 0 0 0
248 17 8 0 -1167.01625271589 -496.396398784162 -1293.0966737855044 0 0 0
241 17 1 0 -1116.267602160161 -493.4798741069684 -1323.5825844040028 0 0 0
963 65 3 -1.5 -2773.8621858500605 -378.85106528942356 -1342.2802072467869 0 0 0
1808 121 8 0 -2602.5751707240984 -403.4778283599288 -1307.3343397243789 0 0 0
972 65 12 0 -2743.739397848034 -339.37875463529997 -1336.2736380649192 0 0 0
1801 121 1 0 -2644.5953975921543 -369.4293422445346 -1325.900591531248 0 0 0
970 65 10 1 -2684.7644447980933 -311.2005009767289 -1340.9545021355334 0 0 0
2938 196 13 -0.5 -2602.8930549629085 -314.5060135914582 -1337.2989163000705 0 0 0
2928 196 3 -1.5 -2560.16264818594 -314.88028511228447 -1341.801769686129 0 0 0
2584 173 4 0 -1607.258537121872 -371.39919837359184 -1344.6693135192224 0 0 1
967 65 7 2 -2629.298291519103 -287.1905371717974 -1329.155592848458 0 0 0
971 65 11 1 -2583.7899561239196 -262.7784203864859 -1316.091573929473 0 0 0
969 65 9 0 -2522.7801654270584 -240.29114748638264 -1317.7032395465355 0 0 0
2935 196 10 1 -2482.8569728229145 -233.1345595755087 -1342.041934817072 0 0 0
975 65 15 0 -2484.8313501191747 -245.22306505146187 -1296.5606279856431 0 0 0
966 65 6 -0.5 -2484.4717912743577 -202.6043102604645 -1326.1218874220767 0 0 0
2932 196 7 2 -2432.4646275938617 -198.57074558486474 -1335.6612323354104 0 0 0
974 65 14 -1.5 -2451.751522168889 -180.9929099063289 -1305.452878595081 0 0 0
2936 196 11 1 -2386.6642993649393 -173.37633098993535 -1323.5334723720307 0 0 0
2934 196 9 0 -2330.9969687596154 -138.4277609141173 -1314.2470326572125 0 0 0
2940 196 15 0 -2292.0953128926353 -138.61035972553813 -1321.5138838922323 0 0 0
2931 196 6 -0.5 -2287.422381566605 -123.25818604132061 -1282.285155605204 0 0 0
3121 209 1 0 -1167.6783177186358 -31.52151612426092 -1288.6996127671944 0 0 0
5059 338 4 0 -625.5256158092875 -43.115916560634375 -1275.3679322895734 0 0 0
656 44 11 1 -148.8753121541156 49.76321482010788 -1325.1446268015764 0 0 0
1718 115 8 0 -358.1076678607393 175.43327902086568 -1318.83369927949 0 0 0
1420 95 10 1 -1597.9977678221605 496.2263006502382 -1342.480295239078 0 0 0
1417 95 7 2 -1561.848551924365 524.5159575812381 -1301.2810292156676 0 0 0
1063 71 13 -0.5 -737.6939257891202 494.8064308261768 -1335.1478815477722 0 0 0
1053 71 3 -1.5 -698.194366973685 503.9882996869161 -1321.6892033142735 0 0 0
1062 71 12 0 -652.110531715303 491.2388426376162 -1332.0854381056772 0 0 0
1060 71 10 1 -594.4927392362089 478.2654507460816 -1308.8121905306298 0 0 0
1057 71 7 2 -534.0427873172844 476.8207270144164 -1299.44379136773 0 0 0
1061 71 11 1 -480.50692648629393 479.96453136238597 -1287.538263623609 0 0 0
4929 329 9 0 -1900.836541849985 667.3600580122834 -1306.6665142776253 0 0 0
4935 329 15 0 -1954.7072859989241 712.7650746434919 -1292.0169802375171 0 0 0
4926 329 6 -0.5 -1888.9038080579794 709.8758461477012 -1278.528345072427 0 0 0
4683 313 3 -1.5 -2877.3761960653446 816.6884924647212 -1288.7205499457357 0 0 0
4693 313 13 -0.5 -2900.732938895913 792.5654191578726 -1314.9531510221484 0 0 0
4922 329 2 0 -1974.9433360999747 754.5609973834909 -1285.6743359372779 0 0 0
4093 273 13 -0.5 -1164.397970311579 962.1579352332858 -1286.434056766862 0 0 0
4083 273 3 -1.5 -1122.7510932269427 954.3099635069583 -1292.592025332188 0 0 0
4484 299 14 -1.5 -1912.167067535863 1020.5015930023862 -1342.2236960671846 0 0 0
4661 311 11 1 -1147.2297878052198 1001.66908560188 -1276.1567414417716 0 0 0
4092 273 12 0 -1080.0347878010614 981.0911789390933 -1294.1262435545598 0 0 0
4659 311 9 0 -1090.7781917750146 1031.9127316282913 -1276.7849098155887 0 0 0
4665 311 15 0 -1060.5383760385866 1039.1956853865004 -1314.233160432238 0 0 0
4658 311 8 0 -1378.3491716517099 1103.1380227153636 -1294.384627399634 0 0 0
4664 311 14 -1.5 -997.1104397831264 1063.6807500901034 -1280.6863530542053 0 0 0
4261 285 1 0 -544.5795692678877 1071.712846130209 -1332.8827717458814 0 0 0
4268 285 8 0 -563.6248042232077 1097.0102856112878 -1284.6415717161508 0 0 0
4651 311 1 0 -1381.499552413937 1147.3830000312123 -1284.8551012623318 0 0 0
5630 376 5 0 -1012.5977251609114 1144.7721018751408 -1332.7753720199032 0 0 0
4893 327 3 -1.5 -845.459880872456 1140.7923515009647 -1276.9322762220118 0 0 0
4903 327 13 -0.5 -884.716521707866 1158.1472244481329 -1276.113106826961 0 0 0
4238 283 8 0 -2217.2163787115287 1244.5586210187396 -1329.2862802505422 0 0 0
4232 283 2 0 -1862.454571716548 1267.4024306331398 -1281.6578743682512 0 0 0
4175 279 5 0 -765.90211368409 1291.8919833583698 -1285.1115957778197 0 0 0
4171 279 1 0 -667.3811416230777 1347.6695550453321 -1309.512302390193 0 0 0
4178 279 8 0 -720.015514122909 1352.6592526689908 -1285.9323128182411 0 0 0
3626 242 11 1 -150.6981588704466 -1352.1408410353279 -1227.0898073269514 0 0 0
3624 242 9 0 -90.87288919891793 -1360.866500644507 -1203.4937884270507 0 0 0
3629 242 14 -1.5 -4.699826557388712 -1391.9367672541214 -1219.491034092467 0 0 0
3621 242 6 -0.5 -43.78610054126942 -1380.7280168588961 -1202.3653541461856 0 0 0
3628 242 13 -0.5 -399.4658947083725 -1349.783125385986 -1259.9946398466054 0 0 0
3627 242 12 0 -324.02250457520745 -1317.2416327683081 -1245.3848608491132 0 0 0
3618 242 3 -1.5 -372.7336383097959 -1320.7517744964734 -1244.193461775146 0 0 0
3625 242 10 1 -265.05226258878434 -1334.7948539204453 -1237.678082040396 0 0 0
3622 242 7 2 -204.25780733710457 -1345.8338893265736 -1233.688204313242 0 0 0
2404 161 4 0 -2155.926854288802 -1250.8090414954509 -1268.4509596446403 0 0 0
3768 252 3 -1.5 -1997.1125810526728 -1166.6957800845064 -1203.1855014164153 0 0 0
3777 252 12 0 -1948.7787909493777 -1183.0231373891556 -1202.2853516071063 0 0 0
3775 252 10 1 -1893.7223953352604 -1177.2526775860397 -1230.8535194409112 0 0 0
3772 252 7 2 -1843.7831129281444 -1173.3311030429704 -1267.3246330194406 0 0 0
3769 252 4 0 -1538.771788149613 -1119.1594474993688 -1267.7512014373744 0 0 0
2664 178 9 0 -85.37280982442786 -849.334259503917 -1273.9736553858108 0 0 0
2666 178 11 1 -123.178269069614 -861.2584063008856 -1222.2202710438014 0 0 0
916 62 1 0 -954.6161380987567 -676.3935610312436 -1203.1950120909578 0 0 0
923 62 8 0 -956.0568091220285 -616.2774696104688 -1203.5751585017504 0 0 0
245 17 5 0 -1226.5486091977316 -476.75428581914923 -1236.3196633597245 0 0 0
962 65 2 0 -2421.9032890348767 -215.48070656983563 -1272.3726656499598 0 0 0
964 65 4 0 -2387.706498738712 -196.6471186347809 -1224.4366030802641 0 0 0
2939 196 14 -1.5 -2269.703698214991 -113.06807012555065 -1242.6248604333264 0 0 0
3128 209 8 0 -1116.8043097718041 -29.69911644426922 -1247.9405160708677 0 0 0
5057 338 2 0 -651.274133716889 -40.277333851864505 -1236.8943393264747 0 0 0
660 44 15 0 -164.94268719487866 -6.289434578287849 -1202.485021763517 0 0 0
654 44 9 0 -124.4303469530486 39.14725169488762 -1264.8454198488907 0 0 0
651 44 6 -0.5 -113.23767370993437 46.1406481006999 -1212.6576953872318 0 0 0
1715 115 5 0 -348.15104943037323 226.05291582027763 -1266.3344634403315 0 0 0
1054 71 4 0 -231.66839823365794 374.881905159722 -1247.2292098661237 0 0 0
1065 71 15 0 -356.4685597934682 449.413132958337 -1268.6835809742915 0 0 0
1052 71 2 0 -277.0102468571705 397.64169937701354 -1239.9440841438343 0 0 0
1059 71 9 0 -419.3310574057677 483.8368756496174 -1259.8868591545968 0 0 0
1056 71 6 -0.5 -379.4160511232989 474.80807956759924 -1222.350023617181 0 0 0
1421 95 11 1 -1524.641781803216 541.7024641114242 -1266.3630917816713 0 0 0
1419 95 9 0 -1482.490269977178 578.4186777411901 -1232.1485191168742 0 0 0
1416 95 6 -0.5 -1437.6945638846985 606.4690151484118 -1222.1092870045627 0 0 0
1425 95 15 0 -1482.2129209605937 648.3652201402836 -1226.9505949934735 0 0 0
1424 95 14 -1.5 -1393.0950398733664 605.5617324260562 -1217.4660485501001 0 0 0
4934 329 14 -1.5 -1862.408077536719 745.7408877514764 -1274.6596881602281 0 0 0
4685 313 5 0 -2942.770217692916 788.1530381262718 -1224.8950577338749 0 0 0
4692 313 12 0 -2866.137061261699 808.8147146340182 -1240.658416346242 0 0 0
4924 329 4 0 -2022.209264311774 791.5977692276879 -1264.0768796969408 0 0 0
4653 311 3 -1.5 -1346.5550349403711 946.1156532180117 -1205.5149899280207 0 0 0
4662 311 12 0 -1314.1467546274641 958.4619923275476 -1242.8749702456496 0 0 0
4660 311 10 1 -1254.268744969947 963.2084123009874 -1259.3719182273 0 0 0
4657 311 7 2 -1195.4298158298707 978.5852678747015 -1268.9129552690647 0 0 0
4090 273 10 1 -1044.3114446838897 1023.3182431649625 -1262.765614308019 0 0 0
4656 311 6 -0.5 -1035.3892889274834 1043.0123628395067 -1270.7008815911413 0 0 0
4655 311 5 0 -1352.1547857639753 1051.7721293557931 -1256.3176451142454 0 0 0
5638 376 13 -0.5 -1032.4646334312476 1053.1119319878576 -1263.3941494896947 0 0 0
4087 273 7 2 -997.5819732091421 1057.6699449715268 -1241.9796630236913 0 0 0
5628 376 3 -1.5 -1008.9919399037452 1086.6118299166424 -1251.8632125204283 0 0 0
5637 376 12 0 -971.3812802630249 1108.3169864920274 -1273.9388439307538 0 0 0
4091 273 11 1 -958.2975918235492 1091.5463589217425 -1229.0179857932264 0 0 0
4089 273 9 0 -898.5768102264171 1121.4844936364257 -1222.701581331084 0 0 0
5635 376 10 1 -917.0033065756754 1139.224101874825 -1262.500406507641 0 0 0
5632 376 7 2 -864.2447014664064 1162.7339746463758 -1242.5491312297786 0 0 0
4086 273 6 -0.5 -855.5798243732329 1153.6469189621857 -1233.7625570936768 0 0 0
4183 279 13 -0.5 -835.2650025793239 1162.5840432522998 -1215.4147268548645 0 0 0
4094 273 14 -1.5 -830.2078962632337 1177.6587578546405 -1261.5192297613573 0 0 0
4173 279 3 -1.5 -817.1629765652439 1180.9221136230583 -1249.6592489238153 0 0 0
4182 279 12 0 -770.9095612379735 1180.3287829075084 -1263.2907660359292 0 0 0
4902 327 12 0 -810.353171334341 1128.6312252269538 -1241.5176793284056 0 0 0
5636 376 11 1 -813.7824910325678 1182.9702297874662 -1235.0719141403238 0 0 0
4900 327 10 1 -754.5039856021541 1145.2129630466193 -1215.9351086995396 0 0 0
5634 376 9 0 -749.0098379010901 1193.635134730631 -1217.5508007129517 0 0 0
4180 279 10 1 -710.7987493047177 1158.6749777687637 -1248.3128539471347 0 0 0
5631 376 6 -0.5 -694.8891847142851 1188.5853616595405 -1213.9523653647966 0 0 0
5383 359 13 -0.5 -681.5340133335671 1186.9742171720857 -1227.1886094699682 0 0 0
4177 279 7 2 -659.1717426501352 1148.709713991505 -1216.1217375950064 0 0 0
5373 359 3 -1.5 -644.4000318179225 1174.5722503320153 -1245.7321617625382 0 0 0
4265 285 5 0 -567.4766428714302 1161.2505660490322 -1266.5478302106608 0 0 0
5382 359 12 0 -594.7296577414709 1165.0730330237077 -1221.3039659392791 0 0 0
5380 359 10 1 -530.1108113014674 1181.3625439056038 -1222.7591887530104 0 0 0
5377 359 7 2 -470.344524685533 1193.7395243515086 -1216.9473916978118 0 0 0
5381 359 11 1 -417.1659773075456 1198.6493149260884 -1215.177790384402 0 0 0
4235 283 5 0 -2224.024153725857 1244.044530147663 -1242.7881511893627 0 0 0
4263 285 3 -1.5 -614.3654976396896 1202.5797003619873 -1200.0979798690332 0 0 0
4273 285 13 -0.5 -652.4279202916674 1209.3878466276008 -1217.5896815969832 0 0 0
4272 285 12 0 -570.398924519174 1212.2676898553027 -1216.5084811128645 0 0 0
5384 359 14 -1.5 -258.82485190369664 1228.0203693393844 -1206.3157426454102 0 0 0
4351 291 1 0 -2195.3813310583205 1372.0524667387488 -1274.2902702946778 0 0 0
4358 291 8 0 -2213.500301227164 1358.087477784581 -1251.288072710727 0 0 0
3630 242 15 0 -64.49197377525905 -1442.8554582146123 -1174.2788992029748 0 0 0
3617 242 2 0 -44.916416161091675 -1491.6408910454024 -1187.8436255799438 0 0 0
3778 252 13 -0.5 -2017.2110167285773 -1135.2975626094697 -1182.0272183576042 0 0 0
2662 178 7 2 -155.2095593488519 -870.1318831247187 -1178.8653907070523 0 0 0
2665 178 10 1 -189.5006690114316 -886.2495556312422 -1130.481915449773 0 0 0
5533 369 13 -0.5 -2672.078796170953 -548.3378331745312 -1139.5557717086383 0 0 0
1618 108 13 -0.5 -1576.30309777117 -562.4014318247416 -1156.888022975947 0 0 0
1608 108 3 -1.5 -1541.8284949221768 -559.6812736563392 -1130.6896479016427 0 0 0
920 62 5 0 -971.3406074862324 -561.9415410557713 -1159.6548620068236 0 0 0
1617 108 12 0 -1503.8312992429255 -524.1017590384605 -1127.7834630781667 0 0 0
253 17 13 -0.5 -1351.4162673771102 -497.80135263299024 -1131.0973831178194 0 0 0
243 17 3 -1.5 -1317.025363209172 -482.0362364276309 -1151.8876333860562 0 0 0
252 17 12 0 -1268.6193838938582 -476.004369804055 -1139.0359326592954 0 0 0
3389 226 14 -1.5 -472.08198542299766 -218.38419978667204 -1148.8885228180643 0 0 0
3125 209 5 0 -1103.2249661236506 -41.839478227824365 -1185.8274844252057 0 0 0
5070 338 15 0 -682.6592008155347 -4.570647861216385 -1147.8094704705327 0 0 0
5061 338 6 -0.5 -668.0696854751553 -33.545309371084095 -1137.9275688552734 0 0 0
5069 338 14 -1.5 -649.1403632481023 -16.469593729664954 -1174.1760764699436 0 0 0
3124 209 4 0 -716.9541163032983 50.47198862816107 -1131.6297870662834 0 0 0
659 44 14 -1.5 -82.73262870112355 46.19141385088858 -1180.3452547460483 0 0 0
1003 67 13 -0.5 -1115.4778029982288 197.90581127704456 -1141.2801310890343 0 0 0
1723 115 13 -0.5 -426.1258419714607 181.12926750207524 -1156.3680897036536 0 0 0
1713 115 3 -1.5 -429.1981016341551 222.73698117748717 -1169.0459169270582 0 0 0
1722 115 12 0 -393.9225708734099 256.3390046399622 -1173.2368842528201 0 0 0
1720 115 10 1 -361.10890613182215 303.3815608066805 -1146.955815172964 0 0 0
1064 71 14 -1.5 -364.48683435993814 461.54430484990445 -1182.6182852156664 0 0 0
5161 345 1 0 -2101.7407238715555 547.8540541415339 -1179.2808521807663 0 0 0
5168 345 8 0 -2139.1502951123603 559.1299082232443 -1143.009004756667 0 0 0
1291 87 1 0 -995.0338975132005 541.5025208366468 -1176.625980263485 0 0 0
1298 87 8 0 -991.3425582067099 555.5246757326556 -1132.2103341415307 0 0 0
1412 95 2 0 -1466.0400868903334 705.1943603666884 -1195.2698933967692 0 0 0
1414 95 4 0 -1437.4175582216617 745.2484315838949 -1165.2771394464567 0 0 0
4690 313 10 1 -2842.6937445829885 829.300938239638 -1186.9671417381355 0 0 0
4687 313 7 2 -2811.317168903465 845.6652964873616 -1136.3307956864926 0 0 0
4663 311 13 -0.5 -1351.5035710137386 910.8916917154638 -1182.167252512075 0 0 0
4895 327 5 0 -888.8690877967457 1064.4982517699361 -1151.9063529509149 0 0 0
4095 273 15 0 -821.2465521654904 1108.7811783393981 -1196.452524499317 0 0 0
4082 273 2 0 -748.303395433704 1107.8640361071225 -1176.692636930913 0 0 0
4897 327 7 2 -698.2003223883972 1163.8323373714338 -1197.6024683594435 0 0 0
4084 273 4 0 -695.8802468608648 1129.1080643699388 -1179.4102680827607 0 0 0
5639 376 14 -1.5 -659.9249097005484 1179.1222397787283 -1188.5018402327012 0 0 0
4181 279 11 1 -616.227997030173 1144.4843625754881 -1184.140812004137 0 0 0
4901 327 11 1 -646.6758817522262 1174.5478940476257 -1183.858462248095 0 0 0
5375 359 5 0 -627.5285378050173 1167.084142722693 -1134.3994111545685 0 0 0
4896 327 6 -0.5 -526.4685523568504 1181.8952771026075 -1193.5619504817598 0 0 0
4179 279 9 0 -554.8283774628039 1149.8238015642767 -1156.3426547449435 0 0 0
4899 327 9 0 -580.7509845397624 1182.3347527057308 -1178.279756725778 0 0 0
4905 327 15 0 -553.4671884720556 1199.0294436103118 -1162.176614363546 0 0 0
4904 327 14 -1.5 -484.37643601119333 1185.852564251706 -1179.983304619787 0 0 0
4176 279 6 -0.5 -504.2183117205445 1169.9149471483568 -1158.2659072763638 0 0 0
4184 279 14 -1.5 -466.86433221983526 1178.2462151586749 -1181.782128814981 0 0 0
5385 359 15 0 -310.29232002295777 1190.710602903171 -1140.8770017774932 0 0 0
4233 283 3 -1.5 -2248.8220187461297 1259.5785773773637 -1145.0115070838033 0 0 0
4242 283 12 0 -2201.250463150675 1251.3051625935175 -1151.3237016708615 0 0 0
4240 283 10 1 -2137.1253600492155 1271.1467186653788 -1146.97535276613 0 0 0
4359 291 9 0 -1986.0230340424193 1273.1713985048702 -1127.6767675599601 0 0 0
4364 291 14 -1.5 -1895.6253507687352 1252.1433576538732 -1134.5483912201232 0 0 0
4356 291 6 -0.5 -1939.5173827373899 1253.4394491187318 -1140.5071102297554 0 0 0
5640 376 15 0 -719.5226087481288 1204.3505594821372 -1162.2972868977959 0 0 0
4270 285 10 1 -512.1573086697799 1222.5976032424715 -1196.736206980984 0 0 0
4892 327 2 0 -485.4222849084251 1215.129390728155 -1144.350476341961 0 0 0
4267 285 7 2 -451.9742803684951 1222.8067881797006 -1185.2483835502233 0 0 0
4894 327 4 0 -434.4180824086219 1208.1681159515265 -1150.0760068975387 0 0 0
4271 285 11 1 -398.5329493117036 1219.1304835039455 -1178.251538715276 0 0 0
5379 359 9 0 -353.8376701767497 1215.8094633717194 -1199.4828193359392 0 0 0
4269 285 9 0 -337.39118945847866 1229.625329621585 -1156.5103287364304 0 0 0
5376 359 6 -0.5 -299.36072861741116 1214.7676924370965 -1193.9377664449619 0 0 0
4274 285 14 -1.5 -242.39155097024607 1224.603144417735 -1162.774773921072 0 0 0
4266 285 6 -0.5 -283.2825647194077 1236.6868951437625 -1151.9804020746476 0 0 0
4243 283 13 -0.5 -2271.6508548985007 1294.187424120653 -1132.1287800091977 0 0 0
4355 291 5 0 -2244.0727760398204 1323.071460876173 -1170.836226836743 0 0 0
4237 283 7 2 -2077.2862707300483 1284.8619767698744 -1143.7619761428757 0 0 0
4241 283 11 1 -2025.9966144541384 1297.5774346087767 -1149.9796287816207 0 0 0
4239 283 9 0 -1959.102069818031 1307.163241729586 -1144.0660221770684 0 0 0
4245 283 15 0 -1901.3052827987278 1317.9328548701071 -1194.9699882909358 0 0 0
4236 283 6 -0.5 -1908.674279649256 1293.454086567867 -1135.7111875501673 0 0 0
3619 242 4 0 -10.029435558918408 1473.621597843856 -1185.4224082970757 0 -1 0
3770 252 5 0 -1924.1650973599205 -1198.5647723921372 -1090.0289424185517 0 0 0
2667 178 12 0 -227.04944889192257 -893.3656305842114 -1079.7344396196027 0 0 0
1306 88 1 0 -225.64061088951377 -680.306255974756 -1052.4522832896978 0 0 0
5523 369 3 -1.5 -2634.983547199176 -557.0201662836735 -1119.6281596712647 0 0 0
5532 369 12 0 -2612.0097121756016 -529.4272315287529 -1083.1338024571328 0 0 0
1607 108 2 0 -1124.2851169304954 -545.5953470648651 -1057.9572199483032 0 0 0
928 62 13 -0.5 -1034.1981320228892 -568.2703085048798 -1050.5587612709323 0 0 0
5530 369 10 1 -2557.105218863351 -503.2924956548459 -1066.2671908645846 0 0 0
5527 369 7 2 -2506.2023259924654 -471.0917016482704 -1053.2658308240282 0 0 0
1615 108 10 1 -1442.4765145937783 -516.2898865731485 -1117.594769669485 0 0 0
1612 108 7 2 -1381.286722014281 -512.779394951837 -1111.2715777420556 0 0 0
1616 108 11 1 -1329.1428331786383 -506.62679343899117 -1098.7792585504033 0 0 0
1620 108 15 0 -1210.0683700087627 -521.4386975335949 -1062.381507072024 0 0 0
1614 108 9 0 -1264.8200933607588 -497.60996293074214 -1093.2341012905463 0 0 0
1611 108 6 -0.5 -1214.680336444102 -478.2395965953171 -1108.6915457686857 0 0 0
250 17 10 1 -1218.9597530109718 -488.008553130143 -1100.205727395556 0 0 0
247 17 7 2 -1166.7155164126007 -494.9012235678689 -1068.239214219458 0 0 0
1619 108 14 -1.5 -1173.9052982208636 -464.0637794702747 -1095.8308740475532 0 0 0
927 62 12 0 -972.0704033527653 -507.778831351673 -1054.6239064159495 0 0 0
925 62 10 1 -921.8467109855281 -474.13647082408727 -1053.634202250382 0 0 0
1610 108 5 0 -1540.2925069725698 -445.968397785743 -1103.6431552495706 0 0 0
1613 108 8 0 -1564.7943967773706 -405.0504530438215 -1067.537191114791 0 0 0
919 62 4 0 -613.4636770837695 -379.43743251763584 -1067.8571387411444 0 0 0
917 62 2 0 -661.1206708569654 -400.9209284538927 -1057.474575741257 0 0 0
3386 226 11 1 -579.0902032434018 -307.7522335527493 -1061.6502064400102 0 0 0
3384 226 9 0 -532.6125628290813 -272.7444046760544 -1095.5084941801695 0 0 0
3381 226 6 -0.5 -492.57748214120295 -235.28432787347074 -1112.8321966727224 0 0 0
3390 226 15 0 -449.1549067706341 -275.99119914711554 -1098.1012498445841 0 0 0
3377 226 2 0 -383.963980364474 -238.35220620429342 -1086.41873433974 0 0 0
5443 363 13 -0.5 -520.1792640380547 -203.9891616563771 -1086.9484407110624 0 0 0
3379 226 4 0 -325.65223429630805 -224.20321561178562 -1078.5156599433233 0 0 0
3123 209 3 -1.5 -1159.008972254646 -23.199029972089 -1068.0729551194352 0 0 0
3132 209 12 0 -1108.48546619805 -24.51753480189093 -1077.370832252275 0 0 0
3130 209 10 1 -1047.0944504031336 -29.916979657891254 -1055.5719306190197 0 0 0
3135 209 15 0 -815.3063849223638 -37.73182402136392 -1099.1402641105155 0 0 0
5066 338 11 1 -750.7983783392207 -9.500306323571426 -1054.5705354329655 0 0 0
3122 209 2 0 -758.9921729492256 -4.980972636733066 -1111.0907500798485 0 0 0
5064 338 9 0 -696.8598655043378 -23.74837898388003 -1092.3458708039125 0 0 0
647 44 2 0 -166.0348744470675 -45.67658125960409 -1124.3662094609938 0 0 0
649 44 4 0 -168.00479521693163 -46.20902815506955 -1070.3050863788244 0 0 0
3133 209 13 -0.5 -1185.6185323364564 9.962281395985137 -1062.4481593370356 0 0 0
993 67 3 -1.5 -1123.1584711997873 208.80245708520286 -1100.6788117004846 0 0 0
1002 67 12 0 -1094.8963122894363 207.58251100116985 -1059.7534772257252 0 0 0
1717 115 7 2 -325.8680994161104 344.16919728799957 -1115.6370958095736 0 0 0
1721 115 11 1 -294.7220543463232 370.65024811798395 -1080.5943921585567 0 0 0
991 67 1 0 -1109.1099102046046 408.62487423415615 -1069.0425677810315 0 0 0
1719 115 9 0 -252.07524805935668 408.6745519370567 -1050.9590974613243 0 0 0
1724 115 14 -1.5 -163.87004165345098 442.24388755085005 -1061.491319648861 0 0 0
1303 87 13 -0.5 -1129.7799047309888 459.14062906065766 -1053.966026825232 0 0 0
1295 87 5 0 -1007.7957131918371 508.92672866112304 -1065.733871929912 0 0 0
5165 345 5 0 -2131.9363850233094 587.0886728121183 -1058.2591858645408 0 0 0
3523 235 13 -0.5 -1521.384715852678 740.2185964157075 -1051.9606252007136 0 0 0
4691 313 11 1 -2791.5973449373796 854.2414932143562 -1087.0609110380224 0 0 0
4066 272 1 0 -2728.927671286649 835.094571130396 -1073.4511229545742 0 0 0
4898 327 8 0 -909.1612730212287 1066.2444132179403 -1092.6850995011498 0 0 0
4891 327 1 0 -951.5922710925872 1084.73491837474 -1058.027432876855 0 0 0
5627 376 2 0 -680.0081324397803 1180.6222773223512 -1118.4531328128646 0 0 0
5629 376 4 0 -651.0941994676342 1198.8925203135434 -1068.7560831876783 0 0 0
5378 359 8 0 -652.4308277090886 1198.3402405490942 -1084.0244645205016 0 0 0
4185 279 15 0 -527.5423032621561 1198.9900802918673 -1118.6682153514146 0 0 0
5372 359 2 0 -304.3121276215645 1161.5985651138928 -1087.3036858825817 0 0 0
4363 291 13 -0.5 -2302.997838536078 1252.9472862015255 -1077.9135440395005 0 0 0
4352 291 2 0 -1879.6593733461912 1249.127366784875 -1069.7767577112816 0 0 0
5371 359 1 0 -657.9926563646544 1237.0013884470088 -1063.275841156819 0 0 0