LAMMPS data file via write_data, version 27 Jun 2024, timestep = 11520000, units = real

5730 atoms
15 atom types
5509 bonds
16 bond types
5730 angles
15 angle types

-3000 3000 xlo xhi
-1500 1500 ylo yhi
-1500 1500 zlo zhi

Masses

1 241.19
2 73.54000000000001
3 330.71
4 235.16
5 68.06999999999999
6 353.53
7 223.38
8 41.1
9 216.91
10 155.15
11 147.32
12 264.65
13 300.8
14 326.05
15 85.20999999999999

Pair Coeffs # lj/cut/coul/debye/gpu

1 0.71637 40.7505
2 0.665709 48.1397
3 1.15033 39.2216
4 0.726774 43.8077
5 0.514724 53.3428
6 1.17127 41.7847
7 1.2256 38.5601
8 0.675431 54.5696
9 1.26117 43.78
10 0.939007 42.5209
11 0.960667 41.1825
12 1.30988 48.0761
13 1.36645 37.7114
14 1.35529 39.2179
15 0.592003 47.2602

Bond Coeffs # harmonic

1 0.003 59.228
2 0.008 56.48
3 0.001 69.324
4 3.207 42.88
5 0.11 49.807
6 0.002 74.968
7 0.001 91.635
8 0.145 54.383
9 2.709 44.406
10 1.71 61.679
11 1.625 54.051
12 0.207 66.185
13 0.002 64.76
14 0.079 63.886
15 0.2 40
16 0.2 40

Angle Coeffs # harmonic

1 11.427 158.273
2 50.464 132.042
3 8.207 156.514
4 92.705 149.394
5 100 174.44
6 3.15 145.53
7 48.938 159.031
8 17.401 129.945
9 15.735 56.441
10 60 172.254
11 60.285 168.396
12 11.83 99.091
13 150 107.995
14 27.746 149.925
15 7.483 160.775

Atoms # full

2413 161 13 -0.5 -2393.0684283677433 -1466.876723342786 -1491.1617245721943 0 0 0
2410 161 10 1 -2267.788356950462 -1489.9515835955287 -1452.4700714822561 0 0 0
2412 161 12 0 -2310.737590540585 -1469.545401755328 -1495.5714082467728 0 0 0
3616 242 1 0 -364.83349531600834 -1297.8974584713508 -1475.4818239166234 0 0 0
3623 242 8 0 -335.31709407472744 -1330.59972458586 -1432.5900900497188 0 0 0
3774 252 9 0 -1732.7684450180802 -1221.4093283778225 -1440.8698805223144 0 0 0
3771 252 6 -0.5 -1691.3701216248264 -1237.5168892809095 -1466.5941625369521 0 0 0
3779 252 14 -1.5 -1675.1855522181065 -1264.2633786612105 -1497.7486139061864 0 0 0
3780 252 15 0 -1698.9972541697095 -1173.3962502330548 -1472.0675888519472 0 0 0
3767 252 2 0 -1701.4210590050527 -1105.141380246979 -1494.1647560995805 0 0 0
1806 121 6 -0.5 -2385.3866011949385 -750.745735847326 -1462.9168030946958 0 0 0
1814 121 14 -1.5 -2345.3226996999297 -760.692911378542 -1478.4237152056958 0 0 0
1809 121 9 0 -2426.4095990163073 -716.6506814787275 -1453.4524598363273 0 0 0
1815 121 15 0 -2382.5216509207958 -704.2803091601875 -1479.0431095217111 0 0 0
2584 173 4 0 -1613.730241052459 -481.81202074841565 -1446.160224259474 0 0 1
2582 173 2 0 -1622.3072124548678 -448.3969870595201 -1484.8168313396682 0 0 1
2933 196 8 0 -2593.668266817582 -334.8175027446977 -1432.4730007845742 0 0 0
2926 196 1 0 -2571.473430045937 -352.5328716976461 -1493.7044733642945 0 0 0
2594 173 14 -1.5 -1710.293712516843 -357.8492952044026 -1449.3044750089623 0 0 1
2586 173 6 -0.5 -1697.8945116423038 -353.2499306364521 -1491.5809670642748 0 0 1
646 44 1 0 -428.8787395382277 -195.54819175025244 -1483.0342122141608 0 0 0
1071 72 6 -0.5 -386.05914646229223 -172.9838613176285 -1480.8976865641398 0 0 1
1067 72 2 0 -287.3988513207738 -212.1655710399522 -1499.6375561584684 0 0 1
1079 72 14 -1.5 -399.1133403771799 -134.0177359088524 -1462.3118829978741 0 0 1
658 44 13 -0.5 -357.68824953309235 45.42561983966509 -1457.5097996271495 0 0 0
4921 329 1 0 -1837.4348259594951 331.6356094693222 -1464.131923300687 0 0 0
4928 329 8 0 -1843.792064928531 367.10941963898927 -1484.121408094639 0 0 0
1058 71 8 0 -509.34069952107296 317.4197957313117 -1465.6021948047912 0 0 0
4925 329 5 0 -1857.9933950732845 428.47659362784884 -1498.3625756468061 0 0 0
1055 71 5 0 -498.2207047785647 379.5680248427632 -1454.7094812179562 0 0 0
1053 71 3 -1.5 -552.6127543512604 455.6531208472677 -1429.1377949114126 0 0 0
4930 329 10 1 -1893.7403594575248 556.2508417726508 -1445.5652727220127 0 0 0
4932 329 12 0 -1863.4365618511265 535.3391974466688 -1498.9560032687461 0 0 0
1413 95 3 -1.5 -1535.255281710864 534.5381833723626 -1470.9248646655558 0 0 0
1422 95 12 0 -1547.7223022383087 569.04423513706 -1437.159164308869 0 0 0
1415 95 5 0 -1639.6997370648273 621.7171526090506 -1494.249631809855 0 0 0
1411 95 1 0 -1742.0377029375968 735.6076428903857 -1445.4328057647303 0 0 0
1418 95 8 0 -1708.0544004894136 689.5507598023762 -1467.8271681078393 0 0 0
4480 299 10 1 -2038.556036746539 1003.3844695324545 -1460.3729215518854 0 0 0
4081 273 1 0 -1091.64023891596 1003.1637131940955 -1457.1739756736004 0 0 0
4654 311 4 0 -951.2593820898734 977.6274757358724 -1441.9912622834313 0 0 0
3620 242 5 0 -300.2646862832756 -1344.2949340649727 -1357.6858036924593 0 0 0
3776 252 11 1 -1795.5974666639352 -1215.1027443072223 -1423.483457579273 0 0 0
3775 252 10 1 -1890.6818739407734 -1170.863998500617 -1371.7821588152867 0 0 0
3772 252 7 2 -1841.1689916819448 -1197.1458756858244 -1398.5541591209144 0 0 0
1811 121 11 1 -2469.052536884546 -683.8690139076298 -1415.9590085234436 0 0 0
1807 121 7 2 -2505.3067303548123 -648.4056590945164 -1399.1985454214353 0 0 0
1810 121 10 1 -2541.9730521057527 -602.3560137999428 -1381.0234770536572 0 0 0
1812 121 12 0 -2582.08206692593 -550.5395601418338 -1373.879824722265 0 0 0
1803 121 3 -1.5 -2602.545406522663 -505.0454354976392 -1380.125120460188 0 0 0
1813 121 13 -0.5 -2588.653974905596 -466.98593025888505 -1394.7660180517503 0 0 0
241 17 1 0 -1257.15065115518 -406.8002170788379 -1359.9201941173221 0 0 0
973 65 13 -0.5 -2851.90997430987 -264.29795380543095 -1391.6889147692864 0 0 0
963 65 3 -1.5 -2821.89072171329 -288.2105170370695 -1371.7160709896737 0 0 0
2930 196 5 0 -2573.9411691779333 -298.4317402531171 -1384.299707434831 0 0 0
964 65 4 0 -2427.1960243861354 -266.85851348621173 -1410.0791704585733 0 0 0
2940 196 15 0 -2271.767708090457 -234.97408199375286 -1354.8402519731892 0 0 0
2927 196 2 0 -2226.0433673410544 -270.70518194545434 -1380.176965135028 0 0 0
2929 196 4 0 -2182.1779736542126 -277.6765889918394 -1386.9393906090218 0 0 0
653 44 8 0 -398.62973459908625 -167.79551146136836 -1414.4589865519092 0 0 0
650 44 5 0 -384.30355184340755 -93.60156404371106 -1403.5664138676905 0 0 0
648 44 3 -1.5 -352.40710830669434 42.54993375795021 -1415.1002060635094 0 0 0
657 44 12 0 -319.77740094950366 16.047039221352705 -1393.9217409677829 0 0 0
655 44 10 1 -265.09773399637913 3.02473506762412 -1367.3581797918941 0 0 0
1711 115 1 0 -435.15526001669866 116.474853881677 -1369.3760236206108 0 0 0
1062 71 12 0 -504.7290415316928 446.5423199261426 -1420.0837285191803 0 0 0
1063 71 13 -0.5 -580.7687744640162 477.9677727969041 -1405.4213910491337 0 0 0
1060 71 10 1 -454.6693848168397 453.13000342250615 -1381.4838564056643 0 0 0
4927 329 7 2 -1927.7285663642765 584.2187937529173 -1401.9530794313414 0 0 0
1420 95 10 1 -1533.0756025880173 594.9490408367284 -1383.45270354562 0 0 0
4931 329 11 1 -1954.7186352340082 611.6461338219549 -1364.0361286294326 0 0 0
4474 299 4 0 -1713.4791942372735 946.6958093724166 -1354.886208799866 0 0 0
4477 299 7 2 -1995.3334716021745 1011.6559100580849 -1418.001113501844 0 0 0
4481 299 11 1 -1954.2049073463363 1023.9782922141324 -1384.2388214381253 0 0 0
4088 273 8 0 -1099.4818708922132 987.1846692036684 -1408.1390344560393 0 0 0
4652 311 2 0 -963.4738182440545 1004.91869583649 -1391.2587321888561 0 0 0
4171 279 1 0 -802.9300093842432 1305.389638185752 -1362.7021087166906 0 0 0
2407 161 7 2 -2226.803244053841 1496.3876038491692 -1407.654603769658 0 -1 0
2411 161 11 1 -2187.890907864583 1485.9079598231617 -1371.5273133393134 0 -1 0
4231 283 1 0 -2154.779606744052 1427.124207257241 -1363.0143094934572 0 0 0
2415 161 15 0 -2110.3358775098673 -1445.563106312306 -1301.1249876451434 0 0 0
2402 161 2 0 -2079.52666288781 -1369.5407144507856 -1294.890995570453 0 0 0
3778 252 13 -0.5 -2013.4082569651964 -1158.8117811277327 -1317.4552731149104 0 0 0
3768 252 3 -1.5 -1974.3519988162031 -1141.4784552765434 -1313.0188931906532 0 0 0
3777 252 12 0 -1936.5400723720818 -1143.4178695167275 -1339.7060645221854 0 0 0
2659 178 4 0 -2.792899642276225 -755.7041025897565 -1317.544166352246 0 0 0
248 17 8 0 -1241.3816527999172 -449.2445025167653 -1308.4043804902294 0 0 0
967 65 7 2 -2655.507341049415 -301.19021587388903 -1320.1895862566337 0 0 0
971 65 11 1 -2603.5851452592897 -310.8363317760255 -1309.3618836844435 0 0 0
969 65 9 0 -2542.6703378779057 -313.93372254347236 -1290.508576177009 0 0 0
975 65 15 0 -2474.4896978027186 -311.58350590031137 -1325.2578258374422 0 0 0
972 65 12 0 -2776.019801834871 -275.2538474224908 -1348.857952058662 0 0 0
970 65 10 1 -2712.929595259135 -282.7567167479741 -1333.2516673788957 0 0 0
2938 196 13 -0.5 -2648.960034695269 -263.5841967653454 -1309.3320414745333 0 0 0
2928 196 3 -1.5 -2611.139269473501 -275.18552969300384 -1293.0620793380479 0 0 0
2937 196 12 0 -2566.282510524405 -274.33884419788745 -1307.6066045418656 0 0 0
2935 196 10 1 -2504.3374965610324 -262.5286696888054 -1295.498324746901 0 0 0
962 65 2 0 -2445.3242344586424 -288.8066272337307 -1349.9867314602645 0 0 0
974 65 14 -1.5 -2455.7383192332304 -282.05207833431325 -1278.748040708629 0 0 0
2932 196 7 2 -2445.176448491849 -245.7244014541385 -1291.0885196980798 0 0 0
2936 196 11 1 -2392.389042274735 -234.11693032330925 -1296.3236214636731 0 0 0
2934 196 9 0 -2326.554223433181 -225.88848462309775 -1299.615228889418 0 0 0
2931 196 6 -0.5 -2272.430887206842 -240.24042515734413 -1303.1583503952852 0 0 0
2939 196 14 -1.5 -2231.523673614775 -232.16975437496984 -1318.4031830753922 0 0 0
965 65 5 0 -2798.9578414137727 -222.12824679140306 -1318.9262201511492 0 0 0
961 65 1 0 -2829.678466442239 -92.39975524763437 -1348.7833452973414 0 0 0
968 65 8 0 -2810.071431395045 -145.2355847556685 -1330.0596442303386 0 0 0
652 44 7 2 -220.08279248532045 -23.216075937593565 -1332.9111983185383 0 0 0
656 44 11 1 -185.86109754447415 -42.84972993665514 -1295.2301657700123 0 0 0
1718 115 8 0 -392.5637911177805 137.88657469587534 -1327.073548896808 0 0 0
1715 115 5 0 -376.1372090828116 224.0754679204946 -1280.6447024332056 0 0 0
1057 71 7 2 -409.9458055887359 479.10813060139606 -1348.5196466841721 0 0 0
1061 71 11 1 -372.90925050323176 507.1369721069807 -1320.199785404758 0 0 0
1065 71 15 0 -265.25477950210126 518.612037304769 -1295.242525746841 0 0 0
1052 71 2 0 -167.4135590785497 503.0060325393973 -1289.1883312552784 0 0 0
1059 71 9 0 -320.43157171374133 536.902219388217 -1291.2950079440182 0 0 0
1056 71 6 -0.5 -271.64118880435774 552.6443160397831 -1275.6874518203351 0 0 0
4929 329 9 0 -1985.7788003667752 657.8969936641034 -1325.6573268184559 0 0 0
1417 95 7 2 -1504.1356160978473 621.659807922467 -1335.737791747438 0 0 0
1421 95 11 1 -1469.858887638137 647.7481372992204 -1301.4670106987198 0 0 0
4926 329 6 -0.5 -2010.7869791028445 679.42537036317 -1282.0640408622328 0 0 0
4479 299 9 0 -1907.1108246327913 1031.3940850097656 -1335.086668177765 0 0 0
4476 299 6 -0.5 -1876.3251045965933 1027.9841222924426 -1290.4672073214695 0 0 0
4485 299 15 0 -1853.7419884176218 1000.9373507772681 -1332.6233015726764 0 0 0
4472 299 2 0 -1760.2197725430806 975.4247326304801 -1339.4286976695496 0 0 0
4658 311 8 0 -1398.163302231756 1042.1482439692145 -1283.0916773578417 0 0 0
4661 311 11 1 -1126.155982477881 1049.5375587160086 -1281.6851028467474 0 0 0
4085 273 5 0 -1083.5895836164677 982.5520157525575 -1339.7705843378749 0 0 0
4659 311 9 0 -1073.344298832353 1084.102063075351 -1293.678391687469 0 0 0
4665 311 15 0 -1004.0316967934791 1060.3415130531346 -1339.016154002739 0 0 0
4656 311 6 -0.5 -1025.1338572610055 1100.2012541343925 -1284.6432454092267 0 0 0
4175 279 5 0 -762.0260281666309 1253.4834246048035 -1278.4344852875734 0 0 0
4261 285 1 0 -662.6762628983108 1244.6075437773986 -1333.5557094759536 0 0 0
4268 285 8 0 -623.6776630797813 1271.7640540979119 -1292.3395775872477 0 0 0
4234 283 4 0 -1820.7353634366204 1295.779981099639 -1281.203803567803 0 0 0
4178 279 8 0 -786.4502978309687 1296.10981042812 -1309.5126285316992 0 0 0
4238 283 8 0 -2187.9001205591885 1424.9544482825236 -1303.063823021299 0 0 0
2409 161 9 0 -2138.889333976577 1490.4575648663342 -1327.0926512884628 0 -1 0
2406 161 6 -0.5 -2110.8588233745986 1483.4100945102684 -1281.2316139538607 0 -1 0
4351 291 1 0 -2126.9479469259973 -1492.418542053267 -1213.5920886911304 0 1 0
3626 242 11 1 -114.61914873815408 -1431.922044353293 -1231.6574541320795 0 0 0
3624 242 9 0 -60.51215758722878 -1463.809630095377 -1208.2502575383446 0 0 0
3618 242 3 -1.5 -317.9856717371021 -1361.0260935804522 -1215.1211987701672 0 0 0
3628 242 13 -0.5 -354.33829073237683 -1383.1284372924752 -1208.0456667384306 0 0 0
3627 242 12 0 -277.52614034173683 -1363.0449805196322 -1241.8002623804796 0 0 0
3625 242 10 1 -216.59735762221135 -1380.1117611043223 -1239.6976493959357 0 0 0
3622 242 7 2 -161.77147282460035 -1406.8468128682327 -1238.6117970028217 0 0 0
2404 161 4 0 -2084.7686484010255 -1327.8414315281955 -1271.6425078743332 0 0 0
3770 252 5 0 -1892.842804613269 -1090.8655371718678 -1240.5839066032047 0 0 0
2657 178 2 0 -8.945356535485068 -739.7865544837962 -1257.765992987472 0 0 0
1618 108 13 -0.5 -1544.7286407430456 -607.5659739042594 -1206.6845729490078 0 0 0
916 62 1 0 -938.9889112048197 -633.3793697274795 -1220.8348485405577 0 0 0
1805 121 5 0 -2612.4582735636372 -546.7418778828865 -1237.8548503932325 0 0 0
245 17 5 0 -1274.7643821433483 -488.38996625949403 -1252.2043186085123 0 0 0
966 65 6 -0.5 -2495.7668040967455 -297.4803896834831 -1269.8056803027064 0 0 0
654 44 9 0 -170.98237700283448 -62.562077039941755 -1236.9643312700146 0 0 0
1723 115 13 -0.5 -465.1116635226536 253.000882923207 -1202.801468554329 0 0 0
1722 115 12 0 -382.61852489600307 283.16445730122206 -1214.6979292747258 0 0 0
1720 115 10 1 -323.0785799135 306.72965287359966 -1200.4519506910885 0 0 0
1054 71 4 0 -127.18093637689185 488.5450780249382 -1268.1980425892755 0 0 0
1064 71 14 -1.5 -244.8912521577973 585.3906704419038 -1261.3120485372194 0 0 0
1419 95 9 0 -1437.6701514746533 674.6214561926259 -1251.6360507798167 0 0 0
4934 329 14 -1.5 -2044.4232552746328 705.6213363002619 -1268.4551491901466 0 0 0
4935 329 15 0 -1956.7573841491171 690.0334821187452 -1273.4562087260458 0 0 0
4922 329 2 0 -1921.0698340415793 723.358611716837 -1206.155431928686 0 0 0
1416 95 6 -0.5 -1422.8657890003376 721.6038393227763 -1222.938435482828 0 0 0
1424 95 14 -1.5 -1402.1785920783366 760.7327495463152 -1224.0641845915954 0 0 0
4663 311 13 -0.5 -1286.0786683316908 875.1857892811672 -1245.6692050414977 0 0 0
4683 313 3 -1.5 -2858.593115990832 926.2439090262975 -1220.7767272432247 0 0 0
4693 313 13 -0.5 -2831.4634032843796 922.2979831180407 -1254.2244754835685 0 0 0
4653 311 3 -1.5 -1289.390129618441 914.96045625386 -1230.0264139736446 0 0 0
4662 311 12 0 -1273.8900459715676 959.6784622544542 -1241.270462869951 0 0 0
4484 299 14 -1.5 -1848.1840641348665 1045.5319604531617 -1261.0433314455463 0 0 0
4655 311 5 0 -1336.0762484429383 994.5339288163505 -1264.8880151047945 0 0 0
4660 311 10 1 -1224.9255860161131 995.2902614196954 -1256.4769558301125 0 0 0
4657 311 7 2 -1173.1421642878263 1026.7066210178443 -1265.6118782596645 0 0 0
4093 273 13 -0.5 -1161.634338389397 989.4880370287972 -1261.75917745098 0 0 0
4083 273 3 -1.5 -1126.1125399660932 1000.5448772219975 -1240.3090851145134 0 0 0
4092 273 12 0 -1090.7556976335636 1024.5567944619352 -1258.6847977414245 0 0 0
4651 311 1 0 -1408.8177513467945 1113.8234316827322 -1245.7362742465475 0 0 0
4090 273 10 1 -1033.9075153935541 1051.6300454497607 -1246.9779711537044 0 0 0
4664 311 14 -1.5 -985.5065003034737 1098.1691063045503 -1264.2613655550879 0 0 0
5638 376 13 -0.5 -1006.8060709593154 1063.4035903878705 -1257.2599465190692 0 0 0
4087 273 7 2 -980.3709790205153 1077.8420048068506 -1231.2887045557711 0 0 0
5628 376 3 -1.5 -970.5458819086191 1084.7029783958503 -1267.220079937812 0 0 0
4091 273 11 1 -934.9628421515358 1100.5301982430092 -1215.431950178017 0 0 0
5637 376 12 0 -944.0804439776892 1123.9758427376794 -1253.8873031784797 0 0 0
4359 291 9 0 -1967.9448135112498 1184.3435744942392 -1223.0136731702796 0 0 0
4364 291 14 -1.5 -1879.0432228591617 1171.523303063847 -1257.6796807012297 0 0 0
4356 291 6 -0.5 -1915.118138257161 1185.403092859344 -1236.6273930379266 0 0 0
5635 376 10 1 -889.0052694743549 1146.6033478494394 -1235.2753123157145 0 0 0
4903 327 13 -0.5 -857.5685209411148 1139.9721354568703 -1232.8592661947264 0 0 0
5632 376 7 2 -834.6614360792333 1167.3311389615405 -1215.5402666860155 0 0 0
4893 327 3 -1.5 -816.8687724059306 1128.4485055718185 -1232.619055959917 0 0 0
4183 279 13 -0.5 -818.4799065846253 1132.9190345256884 -1231.853278863073 0 0 0
4173 279 3 -1.5 -792.7614624768198 1165.8408712110645 -1222.3852350386458 0 0 0
4094 273 14 -1.5 -796.2056596551992 1168.1008422164568 -1221.5345131749775 0 0 0
5636 376 11 1 -787.2862235933615 1192.2502161919836 -1204.9151440732305 0 0 0
4182 279 12 0 -742.262343166367 1165.3024032389674 -1222.060568251609 0 0 0
4361 291 11 1 -2028.4727630675545 1207.124109462973 -1206.7802394298867 0 0 0
4245 283 15 0 -1935.1709120787057 1238.9030156836634 -1240.9204168538142 0 0 0
4244 283 14 -1.5 -1889.4853337806596 1212.2137043814323 -1208.42548048861 0 0 0
4232 283 2 0 -1853.6767259526061 1263.367597503156 -1265.0118111984975 0 0 0
4265 285 5 0 -617.1782503321917 1277.7938504086992 -1219.0277238967533 0 0 0
4235 283 5 0 -2221.9901315951515 1387.7948534495852 -1246.5692863195234 0 0 0
4355 291 5 0 -2177.2800100747663 1367.3847122330653 -1214.653853768907 0 0 0
4358 291 8 0 -2163.897283731177 1448.6325425839289 -1207.0449573594617 0 0 0
2414 161 14 -1.5 -2082.2566467617216 1495.1095366624238 -1248.8451542264306 0 -1 0
3630 242 15 0 -54.945337190248516 -1475.5781084729704 -1168.8873418386174 0 0 0
3773 252 8 0 -1857.8261517417516 -1077.281661410772 -1163.994337926119 0 0 0
2656 178 1 0 -362.1036883803627 -769.985823120873 -1186.6046055921151 0 0 0
2663 178 8 0 -325.2732760718259 -784.9029989367508 -1142.4308220543537 0 0 0
1608 108 3 -1.5 -1504.6785356386665 -611.1716340740044 -1191.448054422742 0 0 0
5533 369 13 -0.5 -2647.5358890289917 -576.5981788654659 -1135.8020902342116 0 0 0
1808 121 8 0 -2594.8397814941404 -535.4529524842353 -1152.7517170050369 0 0 0
1617 108 12 0 -1488.8970487989907 -597.2572675318918 -1145.9608573622238 0 0 0
1615 108 10 1 -1437.7300430137172 -565.4454167706482 -1127.4026274268203 0 0 0
243 17 3 -1.5 -1324.428530951642 -533.6338838625674 -1139.8206409354923 0 0 0
252 17 12 0 -1277.3204857429332 -531.4538031783101 -1153.3006844054185 0 0 0
923 62 8 0 -912.2143140623284 -585.7987345908756 -1179.9311440966592 0 0 0
1801 121 1 0 -2591.303500813619 -479.2346222476558 -1136.5983817053036 0 0 0
1611 108 6 -0.5 -1218.0022311177677 -494.3598911397823 -1134.4594866813484 0 0 0
250 17 10 1 -1218.1498887737018 -519.0654764366119 -1127.735360672434 0 0 0
1619 108 14 -1.5 -1179.4666580777462 -515.9473246958343 -1141.0762459102086 0 0 0
647 44 2 0 -45.61231895286248 -161.71015437038682 -1186.4800232986017 0 0 0
659 44 14 -1.5 -160.31711105040512 -130.14221014827274 -1167.553608311596 0 0 0
651 44 6 -0.5 -174.10490800474597 -94.53698629615965 -1190.6901447726589 0 0 0
660 44 15 0 -119.43975314657784 -103.64773131621949 -1198.8026180466295 0 0 0
5070 338 15 0 -668.4049804703399 -17.133287667092294 -1129.2356084405048 0 0 0
5057 338 2 0 -598.578815730513 12.015750148252051 -1175.132400412917 0 0 0
5059 338 4 0 -549.9977031116715 49.93104884115339 -1182.0298836640843 0 0 0
3128 209 8 0 -1156.0782367802578 77.36059759723305 -1158.4018727828852 0 0 0
3121 209 1 0 -1118.168956300741 138.25549826404327 -1159.8365954000274 0 0 0
1713 115 3 -1.5 -429.75342791844884 277.6276193758721 -1195.7129811476027 0 0 0
1717 115 7 2 -278.45524856046495 337.333250656357 -1170.1421644269353 0 0 0
1721 115 11 1 -237.43369680434344 365.4232885483673 -1149.261568856575 0 0 0
1725 115 15 0 -148.97878055692627 459.69042217198887 -1150.7209214946845 0 0 0
5161 345 1 0 -1910.6340069753223 656.4110682302809 -1153.3821581460766 0 0 0
1425 95 15 0 -1452.8961928306803 676.088201159313 -1175.2088690750109 0 0 0
4924 329 4 0 -1896.569803787319 759.3271503106007 -1167.9500161461142 0 0 0
4685 313 5 0 -2939.1388604823396 858.0169136931951 -1194.0322404407416 0 0 0
4692 313 12 0 -2863.234427640783 901.9928455686935 -1179.3273752935236 0 0 0
4352 291 2 0 -1885.2201021565972 1090.7798435335783 -1147.9522519140921 0 0 0
5630 376 5 0 -986.181322132749 1121.2598914059276 -1196.595232787911 0 0 0
4095 273 15 0 -829.3638272522442 1106.0543589931337 -1189.08179558566 0 0 0
4082 273 2 0 -745.3655057860884 1109.1808745951207 -1158.7556044779622 0 0 0
4365 291 15 0 -1932.7750132329306 1150.159548382678 -1193.6660749462453 0 0 0
4089 273 9 0 -875.7839966039624 1125.1220466232212 -1193.1158583153754 0 0 0
4086 273 6 -0.5 -830.0421288623687 1153.0505859760367 -1197.583891851514 0 0 0
4902 327 12 0 -782.4607845743577 1132.0365723123036 -1193.8243922985655 0 0 0
4180 279 10 1 -687.5348593285978 1172.6813096836347 -1189.954206294423 0 0 0
4900 327 10 1 -733.6885437580123 1159.1462400412101 -1171.7021240870222 0 0 0
4897 327 7 2 -683.4950540382888 1182.3442524448612 -1142.864918530646 0 0 0
4084 273 4 0 -688.6249707403156 1138.7504861348816 -1143.1129274694397 0 0 0
4177 279 7 2 -631.976983661014 1171.9005570612721 -1162.4380441155051 0 0 0
5639 376 14 -1.5 -648.7237856895036 1183.503432483971 -1127.3986737762627 0 0 0
4181 279 11 1 -587.1467526352733 1176.4139802026089 -1134.3139928519845 0 0 0
4360 291 10 1 -2133.958846846075 1252.6034883922584 -1191.5995798459348 0 0 0
4357 291 7 2 -2078.3519403922305 1226.5640796502794 -1196.5866537312506 0 0 0
4241 283 11 1 -2042.8397806946828 1245.19817576127 -1183.768046246562 0 0 0
4237 283 7 2 -2087.9692958231644 1273.834822627866 -1185.0323519777046 0 0 0
4239 283 9 0 -1982.7933982073582 1218.7776696353274 -1190.804936473996 0 0 0
4236 283 6 -0.5 -1928.8354916587864 1214.9852349792634 -1187.383678956972 0 0 0
5631 376 6 -0.5 -676.793667087013 1205.7960759607176 -1152.457083173165 0 0 0
5383 359 13 -0.5 -685.3274797196884 1215.0422390005863 -1167.18512874229 0 0 0
5634 376 9 0 -725.0371177672725 1208.2218073841163 -1181.441006225717 0 0 0
4273 285 13 -0.5 -661.5751918106253 1207.5900633349825 -1163.7178966971214 0 0 0
5373 359 3 -1.5 -647.7958468661321 1210.4175200307257 -1185.876910779516 0 0 0
4263 285 3 -1.5 -633.724102545017 1228.2439961025775 -1139.309379370608 0 0 0
5382 359 12 0 -600.8424196590098 1205.3467132659 -1170.8047933458884 0 0 0
4272 285 12 0 -593.6083006849639 1251.9143727934868 -1154.4101500104696 0 0 0
5380 359 10 1 -546.83476780198 1234.43902743585 -1158.1164143216117 0 0 0
5377 359 7 2 -490.1594163019542 1258.4836794369958 -1152.3973028370383 0 0 0
4184 279 14 -1.5 -452.87644330485676 1249.3148342720897 -1141.8432537437025 0 0 0
5381 359 11 1 -439.1985204497648 1272.9088762461813 -1142.5266235779973 0 0 0
5379 359 9 0 -375.453266982549 1273.6332153127148 -1125.647678501357 0 0 0
4363 291 13 -0.5 -2258.5982010380953 1305.9254941878455 -1160.2139298710565 0 0 0
4243 283 13 -0.5 -2274.561406445068 1345.923814724182 -1145.9998586798265 0 0 0
4362 291 12 0 -2188.0791205505166 1286.1395996913245 -1186.6626276033055 0 0 0
4233 283 3 -1.5 -2235.0967121700646 1333.5482709221849 -1135.5216802440323 0 0 0
4353 291 3 -1.5 -2234.9175206638693 1287.4403285902047 -1190.3220044409131 0 0 0
4242 283 12 0 -2195.018164085133 1331.470516780629 -1164.4371140853737 0 0 0
4240 283 10 1 -2142.740227015965 1303.2090850102884 -1179.7378146198498 0 0 0
4270 285 10 1 -533.322112555228 1275.953448056142 -1144.9139548818673 0 0 0
4267 285 7 2 -476.9680532751562 1301.4565623333913 -1139.284659287474 0 0 0
4271 285 11 1 -424.90275478966964 1313.8419634192448 -1128.8107417883868 0 0 0
3621 242 6 -0.5 -24.96155938905913 1495.488914738659 -1198.7078464565793 0 -1 0
3617 242 2 0 -40.240538644768705 1456.013927518438 -1128.0746492457517 0 -1 0
3766 252 1 0 -1857.456414271528 -1079.4153910730477 -1098.4544435873554 0 0 0
2660 178 5 0 -268.1660146316621 -842.7000631872756 -1109.0015059077975 0 0 0
2662 178 7 2 -89.48878569598236 -844.0688213760153 -1075.1217731258391 0 0 0
2665 178 10 1 -143.15234301633586 -864.7266842535515 -1052.684608467089 0 0 0
2666 178 11 1 -44.93951934330913 -820.1165497397391 -1092.8810823018348 0 0 0
5523 369 3 -1.5 -2629.40295211016 -545.3459407079602 -1112.3493991561313 0 0 0
5532 369 12 0 -2615.1240944958054 -538.4412287566055 -1063.6501243242249 0 0 0
1610 108 5 0 -1578.5531264579497 -556.4682385802854 -1099.933137882912 0 0 0
1612 108 7 2 -1383.5274532768062 -537.0991159356136 -1122.7315996574034 0 0 0
1609 108 4 0 -1098.1848330630805 -540.2450035534749 -1052.8004657310987 0 0 0
920 62 5 0 -911.6778101680258 -549.4642096820401 -1110.5152812826486 0 0 0
253 17 13 -0.5 -1348.8324523741842 -524.3729330645883 -1105.1420931627176 0 0 0
1616 108 11 1 -1332.4788243158612 -519.8907979569192 -1117.3800471903785 0 0 0
1614 108 9 0 -1269.9725147605102 -493.70633868463926 -1123.034681582616 0 0 0
1620 108 15 0 -1218.7759297800578 -484.8876303184801 -1084.580182980706 0 0 0
1607 108 2 0 -1137.191609418689 -509.9090335926217 -1059.829019629888 0 0 0
247 17 7 2 -1160.9086761019512 -517.8365252938058 -1105.432242387475 0 0 0
251 17 11 1 -1108.9355934528248 -512.6598977878812 -1092.8613344771168 0 0 0
249 17 9 0 -1045.7433757055123 -502.37749861600514 -1072.5834929801538 0 0 0
246 17 6 -0.5 -1000.8361144650631 -473.9026901533779 -1063.6726679819865 0 0 0
5443 363 13 -0.5 -507.6632304761417 -302.9401301096577 -1072.4641621386536 0 0 0
3381 226 6 -0.5 -456.0788466230625 -229.1510960046276 -1066.704295950631 0 0 0
3389 226 14 -1.5 -412.9861184793669 -224.79808250590253 -1078.3754945076064 0 0 0
3133 209 13 -0.5 -1206.675281269189 -129.31954898658546 -1092.4150918064527 0 0 0
3123 209 3 -1.5 -1183.6269110011676 -93.1842828719203 -1087.9469043070853 0 0 0
3132 209 12 0 -1136.4412459639148 -76.54440489526547 -1092.1061122884933 0 0 0
3130 209 10 1 -1067.8144354885349 -79.08043172899299 -1088.2285891774004 0 0 0
3127 209 7 2 -1007.4104253036371 -75.90303508713777 -1078.1422073067483 0 0 0
3131 209 11 1 -953.4077810788192 -76.41671009075566 -1076.8546489931698 0 0 0
3129 209 9 0 -889.6692931342791 -70.0437014859327 -1068.5011009065956 0 0 0
3126 209 6 -0.5 -838.1118309518896 -62.47079527778004 -1084.3995597899038 0 0 0
3134 209 14 -1.5 -798.7424220799447 -40.889236867999095 -1078.2098222153227 0 0 0
5066 338 11 1 -763.6865166293659 -26.375851792026015 -1059.1634292347378 0 0 0
5064 338 9 0 -700.029650885988 -37.69588685910331 -1067.1907411012737 0 0 0
5069 338 14 -1.5 -606.7108918646492 -57.47994661420916 -1080.931844894006 0 0 0
5061 338 6 -0.5 -649.0921279804314 -44.338765137323605 -1085.824415675068 0 0 0
3125 209 5 0 -1167.115789289863 14.319522818571954 -1118.0832419153319 0 0 0
1003 67 13 -0.5 -1088.4395325575133 292.35753906673125 -1089.9253085484677 0 0 0
1291 87 1 0 -1101.7684279199734 444.86752105120667 -1075.0705018320602 0 0 0
1719 115 9 0 -196.3852873167205 409.44578887689136 -1118.7868352197318 0 0 0
1716 115 6 -0.5 -149.9761956863706 427.39176299419086 -1094.4158983045438 0 0 0
1724 115 14 -1.5 -118.39229388877975 457.59165251669094 -1087.765008104051 0 0 0
1712 115 2 0 -91.20270336851752 509.0800271859908 -1123.0109700577045 0 0 0
1714 115 4 0 -59.49363238520837 547.1132310474201 -1089.6323108923707 0 0 0
5165 345 5 0 -2029.6318624392038 636.9682582455584 -1088.672370142348 0 0 0
5168 345 8 0 -1950.6848192032426 662.5566165202674 -1117.9242865585993 0 0 0
1412 95 2 0 -1409.6582134113773 709.1752202162895 -1082.6819001244648 0 0 0
4067 272 2 0 -2407.177090593523 785.5689229090917 -1076.5902408595025 0 0 0
4069 272 4 0 -2378.9603813425615 756.6154514760054 -1123.0953341327288 0 0 0
4690 313 10 1 -2837.210982503689 880.0994325079337 -1123.9856771365867 0 0 0
4687 313 7 2 -2813.236784046889 868.1452001350077 -1068.46499056468 0 0 0
4066 272 1 0 -2716.6821116663114 929.5414264735249 -1069.5617010162214 0 0 0
4354 291 4 0 -1844.662469094326 1076.0367483525602 -1097.5337457095522 0 0 0
4895 327 5 0 -871.3948985424446 1117.2638835635964 -1103.3563221945212 0 0 0
5633 376 8 0 -975.8268017779719 1177.5440653623998 -1118.27772444251 0 0 0
4898 327 8 0 -913.9197435041428 1146.5468086094318 -1055.6042120922616 0 0 0
4901 327 11 1 -636.0206269620196 1199.6412534690796 -1123.6724104009056 0 0 0
5375 359 5 0 -631.8382343822856 1142.527524396519 -1083.3560838376336 0 0 0
4179 279 9 0 -527.7202619759926 1199.9183101785109 -1114.6910678843553 0 0 0
5626 376 1 0 -1033.4616524836858 1212.7193629863066 -1102.5933706329467 0 0 0
5640 376 15 0 -696.1717631488602 1236.438535672767 -1120.4164150886465 0 0 0
4899 327 9 0 -579.6022391148049 1229.8069960599978 -1110.4505595931194 0 0 0
4896 327 6 -0.5 -529.4394275949995 1244.8223802935659 -1106.1098158344437 0 0 0
4176 279 6 -0.5 -484.94660188886206 1232.5089201414874 -1116.4984593650026 0 0 0
4904 327 14 -1.5 -488.0615508525094 1235.8792743046915 -1118.555784864835 0 0 0
5385 359 15 0 -332.6021136838432 1227.137153414567 -1073.9320542124528 0 0 0
4275 285 15 0 -331.28337376019283 1273.9697232646 -1058.610281681875 0 0 0
4905 327 15 0 -566.5017364870062 1303.4618747718926 -1083.9448171085746 0 0 0
5376 359 6 -0.5 -329.6733385306042 1299.6606019706185 -1119.6205527108361 0 0 0
5384 359 14 -1.5 -304.7683523018339 1335.7514809546117 -1122.056638093663 0 0 0
4269 285 9 0 -367.66094371427613 1319.1295353760304 -1096.1578528321443 0 0 0
4266 285 6 -0.5 -313.4690016672426 1318.8514151246686 -1081.307935256268 0 0 0
4274 285 14 -1.5 -271.99771677129263 1317.831945140511 -1096.5183072674706 0 0 0
4892 327 2 0 -543.5051453908875 1387.1281317923122 -1056.1656234828154 0 0 0
3619 242 4 0 -62.20033242361573 1405.5837002401465 -1120.0137412765616 0 -1 0
3751 251 1 0 -504.65254010870467 -920.5136881953123 -990.5038322613719 0 0 0
2668 178 13 -0.5 -259.620547757161 -947.0896977248252 -1035.4472313554825 0 0 0
2658 178 3 -1.5 -238.57662256898055 -913.2494288018092 -1019.101425324133 0 0 0
2667 178 12 0 -201.45667010275636 -882.6864671207883 -1037.0881801345347 0 0 0
5530 369 10 1 -2561.3363053761714 -525.1152846186789 -1030.2260449130813 0 0 0