LAMMPS data file via write_data, version 27 Jun 2024, timestep = 13760000, units = real

5730 atoms
15 atom types
5522 bonds
16 bond types
5730 angles
15 angle types

-3000 3000 xlo xhi
-1500 1500 ylo yhi
-1500 1500 zlo zhi

Masses

1 241.19
2 73.54000000000001
3 330.71
4 235.16
5 68.06999999999999
6 353.53
7 223.38
8 41.1
9 216.91
10 155.15
11 147.32
12 264.65
13 300.8
14 326.05
15 85.20999999999999

Pair Coeffs # lj/cut/coul/debye/gpu

1 0.71637 40.7505
2 0.665709 48.1397
3 1.15033 39.2216
4 0.726774 43.8077
5 0.514724 53.3428
6 1.17127 41.7847
7 1.2256 38.5601
8 0.675431 54.5696
9 1.26117 43.78
10 0.939007 42.5209
11 0.960667 41.1825
12 1.30988 48.0761
13 1.36645 37.7114
14 1.35529 39.2179
15 0.592003 47.2602

Bond Coeffs # harmonic

1 0.003 59.228
2 0.008 56.48
3 0.001 69.324
4 3.207 42.88
5 0.11 49.807
6 0.002 74.968
7 0.001 91.635
8 0.145 54.383
9 2.709 44.406
10 1.71 61.679
11 1.625 54.051
12 0.207 66.185
13 0.002 64.76
14 0.079 63.886
15 0.2 40
16 0.2 40

Angle Coeffs # harmonic

1 11.427 158.273
2 50.464 132.042
3 8.207 156.514
4 92.705 149.394
5 100 174.44
6 3.15 145.53
7 48.938 159.031
8 17.401 129.945
9 15.735 56.441
10 60 172.254
11 60.285 168.396
12 11.83 99.091
13 150 107.995
14 27.746 149.925
15 7.483 160.775

Atoms # full

2556 171 6 -0.5 -1202.0522144820563 -1328.0808519522507 -1482.1794308464555 0 0 1
2564 171 14 -1.5 -1171.122277010142 -1309.2958892168458 -1456.6549235657624 0 0 1
3771 252 6 -0.5 -1723.8229561826456 -1206.9952080509931 -1485.7732907366133 0 0 0
3776 252 11 1 -1815.0398016349109 -1136.708746329613 -1457.1777953229976 0 0 0
3774 252 9 0 -1772.1001722468036 -1183.015582321414 -1477.304171388282 0 0 0
3772 252 7 2 -1852.992791491883 -1108.7156617649398 -1431.79859675463 0 0 0
1809 121 9 0 -2479.3896639913637 -640.3678317728778 -1441.4524115901438 0 0 0
1806 121 6 -0.5 -2433.892288253941 -658.9500123569942 -1467.4061870917483 0 0 0
1814 121 14 -1.5 -2389.4222681300766 -656.06947022442 -1469.482648230981 0 0 0
2926 196 1 0 -2505.167728337106 -545.8891515553315 -1433.9175417703439 0 0 0
2933 196 8 0 -2547.7958900558833 -496.9129622976946 -1431.9669056086034 0 0 0
2584 173 4 0 -1672.863207151325 -408.35325282523286 -1441.6132399966798 0 0 1
2582 173 2 0 -1684.1045309594506 -367.2314276108302 -1489.8879844048527 0 0 1
961 65 1 0 -2871.01159118108 -171.90598854609823 -1449.5878832286312 0 0 0
968 65 8 0 -2826.8901682891815 -220.7927413555074 -1449.6215739830204 0 0 0
653 44 8 0 -328.9951679223768 -212.2587275405776 -1472.4585464795264 0 0 0
650 44 5 0 -323.5645108656859 -151.7237186661934 -1465.0552103106604 0 0 0
648 44 3 -1.5 -312.82809132490974 -41.68476277484013 -1445.9520000511268 0 0 0
658 44 13 -0.5 -288.8525079399097 -6.607127909084177 -1453.6521850716508 0 0 0
4921 329 1 0 -1968.9817728753133 277.3274465395768 -1431.892421142344 0 0 0
4928 329 8 0 -1924.4521802892586 298.9441109860774 -1478.0618418376982 0 0 0
4930 329 10 1 -1904.0401560225282 483.7548677692201 -1461.4266070805434 0 0 0
1411 95 1 0 -1741.3591400481948 510.10380229307515 -1435.4143857039514 0 0 0
1423 95 13 -0.5 -1633.625250686301 504.98944241153526 -1449.25388530268 0 0 0
1055 71 5 0 -537.3663343302962 504.4759171161977 -1495.7475270298055 0 0 0
1413 95 3 -1.5 -1602.157548424729 527.2740105590278 -1431.785867652309 0 0 0
4473 299 3 -1.5 -2072.5316487782416 958.8028645873962 -1470.5380375083803 0 0 0
4482 299 12 0 -2028.948066337519 965.1096227679154 -1460.734566930952 0 0 0
4081 273 1 0 -996.1575944317317 962.5003508939483 -1467.747708354603 0 0 0
4088 273 8 0 -1026.449829445279 946.2781434432749 -1441.0926895560774 0 0 0
2410 161 10 1 -2215.001875724393 1462.6415914583624 -1482.291813793127 0 -1 0
3616 242 1 0 -286.6577721417202 -1311.3058597559652 -1382.4929041739686 0 0 0
3775 252 10 1 -1894.9610902788595 -1083.82645013825 -1394.5086579688475 0 0 0
3777 252 12 0 -1942.2806451687177 -1057.9898206243865 -1356.1565573519727 0 0 0
2659 178 4 0 -1.8306766319279224 -876.3102161207008 -1372.681223961163 0 0 0
1815 121 15 0 -2422.8689472692827 -676.1725491581782 -1411.6121801332745 0 0 0
1802 121 2 0 -2368.655037147191 -674.5061877717236 -1373.1290767434916 0 0 0
248 17 8 0 -1211.7644739481243 -606.4977263527936 -1353.3957889912526 0 0 0
241 17 1 0 -1164.7748856883409 -624.5526977447335 -1396.4891401289692 0 0 0
1811 121 11 1 -2518.7522085231026 -593.1303602530653 -1417.937391277214 0 0 0
1807 121 7 2 -2536.330795475057 -547.1009162538703 -1396.246227138989 0 0 0
1810 121 10 1 -2554.310703174324 -497.9091415095297 -1363.556944195769 0 0 0
2930 196 5 0 -2563.876541281537 -445.1699293488913 -1390.686426821538 0 0 0
2928 196 3 -1.5 -2612.8441172547487 -343.750150475203 -1359.9070147832244 0 0 0
2937 196 12 0 -2565.4034599523343 -358.32525648921103 -1356.8205536731411 0 0 0
965 65 5 0 -2818.7423757615156 -281.4325996182289 -1405.136065901801 0 0 0
964 65 4 0 -2489.2196822216147 -155.2127290310927 -1385.8056345126356 0 0 0
962 65 2 0 -2485.127753046014 -202.8048851817803 -1354.2854511887913 0 0 0
657 44 12 0 -302.33992314823575 -79.46502222780568 -1412.6950653694132 0 0 0
655 44 10 1 -293.9911451906242 -101.18984746494085 -1353.3569670012878 0 0 0
1718 115 8 0 -374.6939103013252 310.59823565927616 -1353.1637420268141 0 0 0
1063 71 13 -0.5 -572.0921834891564 380.0986409630786 -1381.771700011715 0 0 0
1053 71 3 -1.5 -554.3881369290677 405.7988429744499 -1411.1969515902724 0 0 0
1062 71 12 0 -520.1763936438597 440.98857095186406 -1402.620838251319 0 0 0
4927 329 7 2 -1914.7935827337344 518.3643480316284 -1411.2936240768952 0 0 0
1060 71 10 1 -465.2241441586729 457.16964893547254 -1376.4099845119279 0 0 0
1054 71 4 0 -193.70811936798648 512.565024665091 -1379.3419257855007 0 0 0
4931 329 11 1 -1913.2333099769874 551.1867015171661 -1366.6419911263258 0 0 0
1418 95 8 0 -1720.6865539801154 534.9452461230654 -1394.1588748467088 0 0 0
1415 95 5 0 -1654.677264545847 559.2001462220708 -1379.6194452316943 0 0 0
1422 95 12 0 -1603.623419703863 570.8642782679926 -1405.6985734593125 0 0 0
1420 95 10 1 -1571.0373114558724 614.9750358994065 -1370.5680364490263 0 0 0
4085 273 5 0 -1043.0828493678862 961.5804496352589 -1362.1302910604402 0 0 0
4480 299 10 1 -1989.290693006439 999.0272895835928 -1424.400732219353 0 0 0
4477 299 7 2 -1947.4430122644287 1032.49949612056 -1395.6424238586242 0 0 0
4481 299 11 1 -1913.1058756759019 1061.0875346722282 -1365.585720066051 0 0 0
4231 283 1 0 -2264.204704988735 1419.8323383190218 -1352.678422312989 0 0 0
2407 161 7 2 -2202.03153505413 1460.064591024495 -1422.0763809027965 0 -1 0
2411 161 11 1 -2193.690219502855 1460.8365732143893 -1368.7940013812083 0 -1 0
3620 242 5 0 -260.3859817964024 -1355.4652394439604 -1284.4680959549098 0 0 0
3623 242 8 0 -253.8228601677475 -1318.2141954399647 -1339.2968661312548 0 0 0
3778 252 13 -0.5 -2018.289903631282 -1023.9516624516555 -1331.5884443357584 0 0 0
3768 252 3 -1.5 -1977.2320424510733 -1021.4966999858608 -1344.1580721838495 0 0 0
1804 121 4 0 -2331.2767973599434 -670.6194202599414 -1331.2208553467524 0 0 0
245 17 5 0 -1204.953541219884 -561.2319491530959 -1294.9736123107136 0 0 0
1805 121 5 0 -2648.893053405783 -474.6356120783101 -1289.3387927735746 0 0 0
1812 121 12 0 -2580.7238002637896 -446.04549599405027 -1332.938603732252 0 0 0
1803 121 3 -1.5 -2584.073393418727 -396.80101761729696 -1325.4641058474656 0 0 0
972 65 12 0 -2800.614589689066 -315.15329081828173 -1332.5413671833053 0 0 0
963 65 3 -1.5 -2846.9484027698195 -318.56510524513624 -1312.960761710917 0 0 0
970 65 10 1 -2738.166368118193 -313.4921356404361 -1326.1527404480196 0 0 0
967 65 7 2 -2677.1521032762757 -314.4495794743383 -1328.0496938688434 0 0 0
2938 196 13 -0.5 -2642.888540310879 -333.1372092881545 -1330.6464652126026 0 0 0
1813 121 13 -0.5 -2567.0087139242496 -368.40209957828654 -1298.042177863459 0 0 0
971 65 11 1 -2624.625969312782 -321.6632066004182 -1330.9364401161608 0 0 0
969 65 9 0 -2557.6610067592137 -322.2516526391073 -1321.5687006147823 0 0 0
2935 196 10 1 -2506.246062484916 -337.145414317674 -1343.5388955982635 0 0 0
966 65 6 -0.5 -2503.0858211074788 -324.94905540061933 -1334.8938234522132 0 0 0
974 65 14 -1.5 -2464.1133234027147 -347.3688592822136 -1336.8262807289384 0 0 0
2932 196 7 2 -2455.2621025987373 -309.5556831216658 -1323.7313914080896 0 0 0
975 65 15 0 -2507.567462798473 -276.0585886946436 -1330.859078818827 0 0 0
2936 196 11 1 -2412.717945404011 -279.7077026866894 -1309.4687146240917 0 0 0
2934 196 9 0 -2365.237940348114 -243.62684051662245 -1283.5675017971867 0 0 0
2940 196 15 0 -2310.737591808346 -234.4480703437478 -1297.7371019901918 0 0 0
2927 196 2 0 -2253.176364664788 -230.8112161651751 -1281.8772167562565 0 0 0
2929 196 4 0 -2192.9605857519327 -253.43893552309214 -1284.9504567388105 0 0 0
2931 196 6 -0.5 -2331.7227509316717 -201.52004873600166 -1279.2985478071776 0 0 0
2939 196 14 -1.5 -2315.1745628839676 -163.32769098068403 -1293.6796719058968 0 0 0
652 44 7 2 -290.821803043935 -109.52540822946624 -1292.1649209317268 0 0 0
5059 338 4 0 -609.228699285221 -54.75234387493493 -1303.811290363509 0 0 0
1711 115 1 0 -409.22564347657556 265.14073660586075 -1342.7174462542782 0 0 0
1715 115 5 0 -371.2882230237102 355.5269977802755 -1312.1144961493846 0 0 0
1057 71 7 2 -413.1997547065122 467.96483494771337 -1345.3786957993125 0 0 0
1061 71 11 1 -369.02705137348687 473.46766430117816 -1314.143720340837 0 0 0
1059 71 9 0 -313.2755345592052 498.49108470471265 -1288.0009239698356 0 0 0
1052 71 2 0 -228.73632316538965 498.0198032992306 -1337.1597564691976 0 0 0
1065 71 15 0 -251.09653466539254 500.8446001012577 -1313.978767651175 0 0 0
4929 329 9 0 -1905.1523311766398 597.7532097966812 -1319.4334953894017 0 0 0
4926 329 6 -0.5 -1911.17095742218 647.1559936886995 -1297.2200661137615 0 0 0
1417 95 7 2 -1535.9776985838134 645.5092038319366 -1329.6287713123788 0 0 0
1421 95 11 1 -1503.6548693724578 674.7076750807133 -1298.7289418664996 0 0 0
4663 311 13 -0.5 -1294.3338819584073 807.8668173658242 -1304.2466704685842 0 0 0
4653 311 3 -1.5 -1267.3155776715435 841.1843227511723 -1309.6582822980506 0 0 0
4662 311 12 0 -1240.5069418821122 869.3827880796806 -1278.2035703488837 0 0 0
4092 273 12 0 -1041.112077182972 956.7541287868179 -1276.26756467916 0 0 0
4665 311 15 0 -978.5403735382366 1024.8073357224146 -1297.9631931914294 0 0 0
5628 376 3 -1.5 -924.0480598740498 1032.8660346219183 -1288.3934219020339 0 0 0
4479 299 9 0 -1862.9456546976571 1096.2702602674951 -1340.6326541913384 0 0 0
4234 283 4 0 -1828.7127592755003 1124.3142324206547 -1290.0156247017665 0 0 0
4485 299 15 0 -1806.9865677696378 1078.5305340757714 -1337.3272639838 0 0 0
4472 299 2 0 -1753.0522873143334 1090.0154001819044 -1339.3256725379988 0 0 0
4474 299 4 0 -1695.4084345433982 1078.4477968283463 -1347.4214472932429 0 0 0
4652 311 2 0 -908.3039024472256 1061.5994389325806 -1326.69558330175 0 0 0
5637 376 12 0 -916.1721218930343 1082.147689853203 -1280.1353246466992 0 0 0
4654 311 4 0 -866.7514164996804 1096.629695671588 -1313.717761801139 0 0 0
4232 283 2 0 -1876.3584817322014 1156.6812149877635 -1281.284604754863 0 0 0
4476 299 6 -0.5 -1818.7607353472608 1128.3297862859622 -1342.78009408565 0 0 0
4484 299 14 -1.5 -1778.3624063423201 1140.7632817134822 -1328.9775248154544 0 0 0
4175 279 5 0 -790.1313951140736 1232.0996382941737 -1279.1529654024594 0 0 0
4171 279 1 0 -896.8929396673133 1343.3831219535923 -1344.1044038741763 0 0 0
4178 279 8 0 -851.2980645108111 1280.694247922216 -1325.7657029739455 0 0 0
4261 285 1 0 -732.0227846048537 1278.9441160376855 -1281.6439258051814 0 0 0
4238 283 8 0 -2238.0254755151736 1428.9932710119783 -1288.8239458243397 0 0 0
2409 161 9 0 -2189.9250935878963 1446.2896066321268 -1305.8161431499323 0 -1 0
2402 161 2 0 -2233.1511554943995 -1446.5300734144096 -1203.498931880146 0 0 0
4351 291 1 0 -2203.3741635913834 -1488.5908310217574 -1220.012678992139 0 1 0
3770 252 5 0 -1886.5475905533965 -1032.7049453604834 -1267.7028719591606 0 0 0
3773 252 8 0 -1846.0010864756125 -963.6963013620749 -1227.4522028790761 0 0 0
2663 178 8 0 -280.05907556780323 -692.0730602516621 -1219.2761794570995 0 0 0
2656 178 1 0 -250.5237862024711 -616.4274200661844 -1224.8257149642402 0 0 0
243 17 3 -1.5 -1280.4994839539143 -534.4406499211765 -1218.5172586657063 0 0 0
252 17 12 0 -1233.5310166002498 -528.9788915214973 -1209.074584854398 0 0 0
1801 121 1 0 -2689.626890072821 -491.9076322295153 -1201.471768885881 0 0 0
1808 121 8 0 -2697.5098953966544 -480.6527543321616 -1257.719034233945 0 0 0
973 65 13 -0.5 -2856.1698475329777 -328.97973743500575 -1272.1455306226326 0 0 0
3121 209 1 0 -1176.8689465126824 -250.93910838002066 -1203.8356091691928 0 0 0
5069 338 14 -1.5 -661.0629615592366 -101.00818245285267 -1209.1999381797045 0 0 0
656 44 11 1 -285.1636089700287 -120.05813227629329 -1238.708798496794 0 0 0
5070 338 15 0 -711.5601048238952 -51.6988991455434 -1207.7938901289624 0 0 0
5057 338 2 0 -669.5884569099462 -42.62065562541431 -1271.4755100240382 0 0 0
1723 115 13 -0.5 -457.71212055160515 406.69893623683913 -1274.2045607293405 0 0 0
1713 115 3 -1.5 -434.2288011337433 427.8802904455175 -1245.6290717259744 0 0 0
1722 115 12 0 -387.3254275889969 417.3825805053622 -1235.843095281664 0 0 0
1720 115 10 1 -329.6015253730291 437.66256039141035 -1211.8722584211594 0 0 0
1056 71 6 -0.5 -270.2740459802922 511.25441578569496 -1255.4345023260978 0 0 0
4681 313 1 0 -2964.298929955792 585.4314510223892 -1229.4849998899424 0 0 0
4935 329 15 0 -1866.9642743102252 595.7266239760038 -1249.5712444777712 0 0 0
1064 71 14 -1.5 -237.4846254568653 539.1444792746693 -1244.3919480884886 0 0 0
4934 329 14 -1.5 -1905.6172815695618 675.3501603274833 -1263.0498655542713 0 0 0
1419 95 9 0 -1477.0319610801475 714.6432439618252 -1256.1402617166673 0 0 0
1416 95 6 -0.5 -1459.644452401304 737.3498990282294 -1208.2828400753665 0 0 0
1425 95 15 0 -1434.1571771146298 772.3180888163585 -1259.184299938497 0 0 0
1412 95 2 0 -1380.2179390981808 811.3730103838008 -1241.4364562861344 0 0 0
1414 95 4 0 -1331.7514857798374 819.7836045526407 -1214.6768068472088 0 0 0
4655 311 5 0 -1325.9078416779264 929.4941930757897 -1220.9830595558665 0 0 0
4660 311 10 1 -1188.7014070620144 904.3768637853232 -1270.8277523772622 0 0 0
4657 311 7 2 -1138.835594882886 939.3420851268125 -1263.7127768993498 0 0 0
4093 273 13 -0.5 -1113.6938945170978 911.8537487941243 -1274.3127311957521 0 0 0
4661 311 11 1 -1092.961611518788 967.2356434305071 -1256.4329675106076 0 0 0
4083 273 3 -1.5 -1089.2370911474306 945.2794456026994 -1262.283697975428 0 0 0
4352 291 2 0 -1947.321855933107 1048.260428977702 -1232.4280296519257 0 0 0
4354 291 4 0 -1911.8974453690398 993.310256279238 -1260.883857313779 0 0 0
4659 311 9 0 -1044.3632802564794 1011.655640164898 -1261.9722555865876 0 0 0
4090 273 10 1 -991.7196163173279 988.3882787333104 -1256.4378144684165 0 0 0
4656 311 6 -0.5 -1001.6142079725349 1043.6657564874436 -1247.2888821509741 0 0 0
5638 376 13 -0.5 -946.1227816439431 1003.3443384966138 -1265.5454455967524 0 0 0
4087 273 7 2 -950.1886686929461 1025.8751379099056 -1232.0694337172017 0 0 0
4356 291 6 -0.5 -1981.006124377853 1108.5143216351062 -1272.880636981312 0 0 0
4365 291 15 0 -1991.647083386823 1085.2515696005305 -1235.5013411063678 0 0 0
4364 291 14 -1.5 -1938.2764184827245 1104.3126633619545 -1264.53295841764 0 0 0
5630 376 5 0 -1003.1089202748927 1086.267844749522 -1201.0743181432126 0 0 0
4664 311 14 -1.5 -960.3680595998046 1059.313182107857 -1251.7396051946835 0 0 0
4091 273 11 1 -909.6583998309767 1054.9341160732117 -1211.0217646518452 0 0 0
4893 327 3 -1.5 -807.7381252254007 1120.8207751555824 -1230.3915265608175 0 0 0
4361 291 11 1 -2070.506259228877 1173.4851004844961 -1228.1801650470752 0 0 0
4359 291 9 0 -2031.6554601413497 1126.677765991791 -1255.5858753574337 0 0 0
4239 283 9 0 -2020.326591874812 1170.2112029833893 -1222.6573687495456 0 0 0
4236 283 6 -0.5 -1983.9217707655364 1128.4379951647081 -1214.0053141174772 0 0 0
4245 283 15 0 -1959.342274250987 1159.9737114460324 -1262.5655441108531 0 0 0
4903 327 13 -0.5 -847.3371581343644 1134.2036245324002 -1239.2145230988917 0 0 0
5635 376 10 1 -869.536978225828 1126.2226260220855 -1263.8042247703374 0 0 0
4183 279 13 -0.5 -852.2918373536473 1164.7109194606662 -1216.878045671788 0 0 0
4173 279 3 -1.5 -830.7733150084697 1154.7443758454015 -1252.1538122947989 0 0 0
5632 376 7 2 -823.928442888042 1165.0591509990847 -1248.77187665543 0 0 0
4094 273 14 -1.5 -804.6575751885903 1173.9176277591012 -1214.7499167645858 0 0 0
5636 376 11 1 -782.0867415080852 1190.7738653868312 -1226.16471350977 0 0 0
4182 279 12 0 -781.4409473317148 1155.2157258711488 -1259.2641927465122 0 0 0
4902 327 12 0 -770.8073948677192 1142.7832113183053 -1202.9277442165906 0 0 0
4180 279 10 1 -724.4060108493796 1146.3453226097163 -1223.8880078387513 0 0 0
4357 291 7 2 -2105.4621097807803 1210.3723249696907 -1209.2893161041386 0 0 0
4241 283 11 1 -2064.5790512769595 1218.4565800819923 -1211.3777543930444 0 0 0
4268 285 8 0 -695.7141387356967 1311.1356309802688 -1210.8039963911633 0 0 0
4235 283 5 0 -2222.094992678369 1384.1504610255897 -1227.9351668456593 0 0 0
3629 242 14 -1.5 -34.94743505236549 1381.3774368325155 -1236.0736854056254 0 -1 0
3621 242 6 -0.5 -50.823683686275096 1417.5998158607888 -1215.185575404875 0 -1 0
2406 161 6 -0.5 -2202.912834114521 1427.4767836782376 -1253.9949038812147 0 -1 0
2415 161 15 0 -2199.4864597286737 1476.9767674670334 -1255.675773829867 0 -1 0
2414 161 14 -1.5 -2220.485146033356 1432.7303690627089 -1213.7614609165232 0 -1 0
4358 291 8 0 -2175.880751249819 1460.3462535565611 -1202.5884411081129 0 0 0
3622 242 7 2 -176.08935103863115 -1464.334298041942 -1184.0169257828838 0 0 0
2404 161 4 0 -2268.6754658483032 -1412.56832110716 -1161.4082822951323 0 0 0
3627 242 12 0 -256.23567484190903 -1368.0864862395445 -1195.2755410055688 0 0 0
3625 242 10 1 -210.84709136184188 -1414.3713995600538 -1190.6830545711184 0 0 0
3628 242 13 -0.5 -307.04553106426806 -1309.03330633613 -1164.4539108797621 0 0 0
3618 242 3 -1.5 -269.924647245635 -1328.486409269035 -1172.6271268472237 0 0 0
3766 252 1 0 -1846.5454460013502 -962.0972833382618 -1168.7479227904084 0 0 0
2666 178 11 1 -81.1712020285517 -864.2087813793146 -1130.6995756458657 0 0 0
2664 178 9 0 -19.852538702172783 -870.6934240532435 -1158.491445887553 0 0 0
2660 178 5 0 -284.02381893123976 -760.3178596664351 -1164.6849562288578 0 0 0
1618 108 13 -0.5 -1507.845616166995 -605.1382540127803 -1149.6094817238597 0 0 0
1608 108 3 -1.5 -1499.9529112882847 -568.5327077089796 -1170.7232608485253 0 0 0
1617 108 12 0 -1461.5518450587458 -542.0917663763177 -1170.9230782328532 0 0 0
1615 108 10 1 -1399.9595865987476 -537.5254164354934 -1164.7494142411863 0 0 0
253 17 13 -0.5 -1315.9980747680934 -527.027951576605 -1196.3114554636998 0 0 0
1612 108 7 2 -1338.0925782362542 -532.0873455316298 -1164.525421367793 0 0 0
1616 108 11 1 -1284.7789605729563 -528.4958575050262 -1160.985235209053 0 0 0
1620 108 15 0 -1164.8060761197069 -558.5048048415521 -1144.2251992478677 0 0 0
1607 108 2 0 -1087.8547451689706 -542.2534889707567 -1148.1953154086325 0 0 0
916 62 1 0 -942.0605934099416 -541.2831858737143 -1128.4933929946899 0 0 0
1610 108 5 0 -1512.7362664429013 -462.3117197097981 -1133.6104920431012 0 0 0
1614 108 9 0 -1219.6442261993022 -518.522873549326 -1143.5924044606709 0 0 0
250 17 10 1 -1179.9553412526834 -522.3472865192451 -1172.1281652725086 0 0 0
247 17 7 2 -1128.6872562047204 -510.10489063577864 -1140.0439191220505 0 0 0
1609 108 4 0 -1053.082812420705 -499.939264945036 -1160.2416432628459 0 0 0
923 62 8 0 -912.0865443692704 -505.628563688493 -1135.4427754508959 0 0 0
3128 209 8 0 -1174.9163096113675 -205.7749951026312 -1152.2033005770272 0 0 0
647 44 2 0 -125.53884649489318 -163.44278080630863 -1126.6533433825628 0 0 0
5061 338 6 -0.5 -690.8701520032233 -92.67126824693753 -1177.4003777551163 0 0 0
654 44 9 0 -260.08161445644487 -138.67536288791015 -1181.983876730229 0 0 0
651 44 6 -0.5 -242.99965641031775 -139.2012892377863 -1130.697738409695 0 0 0
660 44 15 0 -201.97754944146953 -136.94969018197398 -1166.6301052626627 0 0 0
5064 338 9 0 -713.7771882906623 -60.48514329560644 -1143.9392413585517 0 0 0
1291 87 1 0 -1123.6877314214385 359.753130338738 -1163.6443424292033 0 0 0
1717 115 7 2 -274.0700771674409 449.5909997955603 -1185.2654296717665 0 0 0
1716 115 6 -0.5 -112.72616194670191 441.0637628238773 -1138.9011160316884 0 0 0
1724 115 14 -1.5 -67.87157913554859 442.87304728586463 -1137.6086839773936 0 0 0
5161 345 1 0 -2002.0551576995506 487.91752633656677 -1154.3749121015203 0 0 0
1721 115 11 1 -224.6394694124902 460.0313881994258 -1167.009588586254 0 0 0
1719 115 9 0 -160.88172691820853 461.9053282339302 -1151.648209645981 0 0 0
1725 115 15 0 -114.26333706798705 461.7201412819313 -1178.2738082109863 0 0 0
1712 115 2 0 -83.39029201254412 473.0918755741022 -1183.32603413286 0 0 0
1714 115 4 0 -31.218495202450693 461.82854782493695 -1181.4180994405178 0 0 0
4688 313 8 0 -2938.128896004154 619.1374366983148 -1174.7622830517182 0 0 0
4924 329 4 0 -1891.1656182460242 658.8474722934371 -1142.5626142480705 0 0 0
4922 329 2 0 -1882.3013888514804 621.0123147308781 -1182.6209782398962 0 0 0
1424 95 14 -1.5 -1445.0514069420967 726.7498758705832 -1167.507964328658 0 0 0
4683 313 3 -1.5 -2920.88838274633 800.20276675823 -1139.949683696441 0 0 0
4693 313 13 -0.5 -2900.0980906324494 812.1746756778559 -1175.5835059833455 0 0 0
4066 272 1 0 -2702.7902335172957 951.8931157696751 -1148.8096291612246 0 0 0
4658 311 8 0 -1377.1630753154952 985.652406078511 -1199.3704724305164 0 0 0
4651 311 1 0 -1407.6267482441172 1021.3471146042485 -1144.4762565610883 0 0 0
4244 283 14 -1.5 -1964.9340867100198 1097.1796945628068 -1188.7239257818376 0 0 0
5633 376 8 0 -1070.1875088541528 1069.3157185317555 -1170.4087602419254 0 0 0
4089 273 9 0 -861.3040886384514 1098.5128823601287 -1196.5342217844852 0 0 0
4095 273 15 0 -809.7954992799317 1101.0675874685824 -1185.772550644851 0 0 0
4082 273 2 0 -753.3403709507359 1098.4361095702666 -1182.151910356822 0 0 0
4084 273 4 0 -702.047952420358 1115.8084745668332 -1185.1535146642186 0 0 0
4174 279 4 0 -378.3024819001714 1077.950556738006 -1139.1451745302677 0 0 0
4086 273 6 -0.5 -830.3365453399473 1143.2424975756353 -1194.6818557087786 0 0 0
4895 327 5 0 -835.6084078932685 1159.0589654751334 -1133.4771622682292 0 0 0
4900 327 10 1 -715.5885059762836 1154.8420707923983 -1175.048914051174 0 0 0
5383 359 13 -0.5 -676.0961377153199 1187.6877591674345 -1167.5413104441463 0 0 0
5631 376 6 -0.5 -676.7651823448866 1195.004656858947 -1173.3178211207971 0 0 0
5640 376 15 0 -728.2462172806435 1186.6902679668556 -1125.1693464729565 0 0 0
4177 279 7 2 -670.9350844970644 1146.9988636665446 -1194.8246235763465 0 0 0
4897 327 7 2 -663.7755197609827 1158.3268798855854 -1141.954097407298 0 0 0
4181 279 11 1 -626.9210069619313 1150.3673984721238 -1161.7743118381682 0 0 0
5639 376 14 -1.5 -651.8526297397615 1196.7116237954083 -1136.5424442014662 0 0 0
5373 359 3 -1.5 -634.3254168595727 1193.9613458995332 -1174.081570076173 0 0 0
4360 291 10 1 -2148.3307538135036 1250.7440289837275 -1191.0730758671484 0 0 0
4237 283 7 2 -2099.6988986096785 1256.3693881398387 -1196.4578175038891 0 0 0
5634 376 9 0 -724.9034533858235 1204.4003007475344 -1195.735336165307 0 0 0
5382 359 12 0 -601.2844724855231 1203.8735282847963 -1142.1855774525618 0 0 0
5380 359 10 1 -537.8020394619814 1212.5048682197323 -1129.1314907226963 0 0 0
4362 291 12 0 -2184.6469841564062 1298.3196405516653 -1165.3763524583267 0 0 0
4242 283 12 0 -2176.3458275744165 1348.7522044386606 -1152.3846019485147 0 0 0
4240 283 10 1 -2138.418692212733 1299.1249396329442 -1173.7491692113458 0 0 0
4265 285 5 0 -633.1280936461876 1302.947682252886 -1155.578667688703 0 0 0
5372 359 2 0 -274.1992129347842 1286.8703145451714 -1138.6985913366907 0 0 0
5374 359 4 0 -213.99272115858366 1281.0091280086106 -1156.8802712020636 0 0 0
4355 291 5 0 -2157.620775466965 1374.9264145903755 -1197.1613840512168 0 0 0
3630 242 15 0 -54.89678951085188 1405.502926567182 -1157.2719464656643 0 -1 0
3626 242 11 1 -141.98747126378856 1492.487095065802 -1187.1803503153103 0 -1 0
3624 242 9 0 -90.3385647909517 1449.4292903186367 -1196.0923743206718 0 -1 0
3751 251 1 0 -500.8515336221557 -950.6820195272553 -1092.5318838198282 0 0 0
2665 178 10 1 -186.43189306281545 -830.1570571121601 -1096.5289478185787 0 0 0
2662 178 7 2 -128.96156496714528 -846.8799983841197 -1112.3877975493012 0 0 0
2668 178 13 -0.5 -329.32021541741585 -813.5066416491569 -1065.2032200650608 0 0 0
2667 178 12 0 -245.91160805097752 -820.5141343164905 -1087.1278986651487 0 0 0
2658 178 3 -1.5 -286.8875235911437 -814.3537685478768 -1058.822593863812 0 0 0
5533 369 13 -0.5 -2615.8001370806996 -606.6205697725396 -1102.385635989744 0 0 0
5523 369 3 -1.5 -2639.4090217921203 -599.8127702346893 -1066.9237616150926 0 0 0
1619 108 14 -1.5 -1134.7128540084182 -510.40028842898846 -1099.7405590584704 0 0 0
1611 108 6 -0.5 -1175.0216445169228 -500.3599992897902 -1115.24885164925 0 0 0
251 17 11 1 -1079.5580524457903 -497.5140979151894 -1120.7248721793337 0 0 0
249 17 9 0 -1017.6096130567184 -495.8982194683109 -1095.7955211404194 0 0 0
246 17 6 -0.5 -969.1758948145925 -510.34406150778847 -1079.5458740346696 0 0 0
254 17 14 -1.5 -935.0180312606394 -510.26860701666715 -1051.1576210173087 0 0 0
920 62 5 0 -894.4424670299592 -487.49881200685917 -1070.0157119704097 0 0 0
1613 108 8 0 -1541.2050013791547 -378.92997382167954 -1122.5582567639187 0 0 0
1606 108 1 0 -1591.6111708300332 -340.54120404862005 -1119.913511228106 0 0 0
659 44 14 -1.5 -239.26130341985322 -160.51355839075464 -1091.9325692328746 0 0 0
649 44 4 0 -113.72326700764671 -196.78952977168126 -1079.1229086741575 0 0 0
3125 209 5 0 -1175.6562435424462 -127.07742836540231 -1107.7717109703822 0 0 0
3130 209 10 1 -1079.7051503646314 -26.568225193650637 -1055.60356397541 0 0 0
3127 209 7 2 -1019.5408690220636 -19.28399293642283 -1066.074135650105 0 0 0
3131 209 11 1 -964.9535156635873 -15.888777424146843 -1067.0026654648639 0 0 0
3126 209 6 -0.5 -846.010931605731 -2.306738777771301 -1078.5904815840624 0 0 0
5066 338 11 1 -766.0733792118915 -38.580524414472954 -1110.4014496166426 0 0 0
5062 338 7 2 -808.4581692059261 -27.580173128347838 -1077.7521174400922 0 0 0
3129 209 9 0 -900.8797085425145 4.4126427390210425 -1070.8355792406674 0 0 0
3134 209 14 -1.5 -806.9912994558746 5.406394058016668 -1099.501354956087 0 0 0
993 67 3 -1.5 -1088.7809258934408 293.48241139714935 -1052.2754221867428 0 0 0
1003 67 13 -0.5 -1126.3389295055792 314.30436459298863 -1052.6594245401513 0 0 0
1298 87 8 0 -1064.132731038519 340.44100949510164 -1122.945412493265 0 0 0
5168 345 8 0 -2040.6451308109831 516.954024356927 -1108.3430588244548 0 0 0
5173 345 13 -0.5 -2190.771428467454 582.722081009251 -1107.9103433855764 0 0 0
5165 345 5 0 -2089.5849420367176 562.5373433195571 -1080.1913559617471 0 0 0
4685 313 5 0 -2922.911100606817 670.530812989729 -1105.0630434313657 0 0 0
5163 345 3 -1.5 -2169.995430066572 610.6969235545096 -1083.5628000853537 0 0 0
3523 235 13 -0.5 -1432.5342894128903 727.0938810630931 -1068.5556499031843 0 0 0
4692 313 12 0 -2909.372196425846 804.6667611933392 -1093.7736815514381 0 0 0
4690 313 10 1 -2859.935320716314 814.1794452586213 -1055.4806647620223 0 0 0
4073 272 8 0 -2677.92839458784 954.4004592763599 -1088.7343070610912 0 0 0
4069 272 4 0 -2386.282465214822 959.6921632428149 -1115.0906532049678 0 0 0
4067 272 2 0 -2367.045398969452 957.8628545948991 -1059.3094177600112 0 0 0
5626 376 1 0 -1103.922918852872 1080.9255788668856 -1095.771665146394 0 0 0
4185 279 15 0 -496.3329551074677 1112.3036879615663 -1101.2018133809092 0 0 0
4172 279 2 0 -436.2133924559545 1082.504256530181 -1121.876405561021 0 0 0
4898 327 8 0 -874.2749659399407 1140.0166371472853 -1077.5970413694702 0 0 0
4273 285 13 -0.5 -648.2934924992372 1187.7148162840754 -1119.8372552201658 0 0 0
4901 327 11 1 -623.5195810950958 1169.4709872602868 -1107.691042819933 0 0 0
4179 279 9 0 -573.5480104307743 1165.3697776036 -1121.9782882209058 0 0 0
4176 279 6 -0.5 -526.8597105831809 1185.158849513734 -1108.0038208567823 0 0 0
4899 327 9 0 -569.4510301294612 1193.2217431242436 -1079.1806221537158 0 0 0
4263 285 3 -1.5 -615.6471188526818 1203.9670142440712 -1097.059802985157 0 0 0
5375 359 5 0 -645.5590044470994 1204.5836667462888 -1058.7075959589129 0 0 0
4272 285 12 0 -583.8103111644253 1242.2244609678767 -1096.8482025681046 0 0 0
4896 327 6 -0.5 -525.8235887134216 1219.2573180417762 -1074.9336281767066 0 0 0
4270 285 10 1 -528.5222624232437 1264.0977711867117 -1085.977863493069 0 0 0
4184 279 14 -1.5 -505.2534044546123 1219.454738905033 -1089.732141321022 0 0 0
5377 359 7 2 -481.9210915072427 1234.3012994822416 -1116.502390538339 0 0 0
4904 327 14 -1.5 -482.03475596076044 1221.7597449919024 -1080.6195446384575 0 0 0
5381 359 11 1 -437.59572193788534 1259.9249313156486 -1099.848554102774 0 0 0
4262 285 2 0 -267.13890885515923 1231.960834218505 -1057.6746134651755 0 0 0
4353 291 3 -1.5 -2203.21629523215 1322.3759047985188 -1123.437562492169 0 0 0
4363 291 13 -0.5 -2191.9415045697565 1331.7530930052462 -1082.8759535302015 0 0 0
4267 285 7 2 -470.69788225950236 1276.4783067552644 -1068.0326156539272 0 0 0
4271 285 11 1 -418.85128689505154 1289.654154308993 -1060.9306480040557 0 0 0
5379 359 9 0 -378.24152491283326 1290.8885129203088 -1093.6721376191163 0 0 0
5385 359 15 0 -319.21978149290345 1279.036602549374 -1124.4975721797357 0 0 0
5376 359 6 -0.5 -328.2739222080517 1303.8538568842384 -1079.4147150174183 0 0 0
5384 359 14 -1.5 -292.5092106200718 1329.3648382832228 -1085.0670109359546 0 0 0
3619 242 4 0 -37.31245257857439 1315.512061084942 -1076.9369268011142 0 -1 0
5359 358 4 0 -2987.551780088191 1359.2269980403805 -1074.8736699632536 1 0 0
4233 283 3 -1.5 -2183.5895097749635 1385.4593156460041 -1116.2310526841482 0 0 0
4243 283 13 -0.5 -2183.025742902607 1379.5812854072537 -1073.5380524338236 0 0 0
2176 146 1 0 -885.8891470224075 1380.5826301245136 -1091.1851445312852 0 0 0