LAMMPS data file via write_data, version 27 Jun 2024, timestep = 24960000, units = real

5730 atoms
15 atom types
5634 bonds
16 bond types
5730 angles
15 angle types

-3000 3000 xlo xhi
-1500 1500 ylo yhi
-1500 1500 zlo zhi

Masses

1 241.19
2 73.54000000000001
3 330.71
4 235.16
5 68.06999999999999
6 353.53
7 223.38
8 41.1
9 216.91
10 155.15
11 147.32
12 264.65
13 300.8
14 326.05
15 85.20999999999999

Pair Coeffs # lj/cut/coul/debye/gpu

1 0.71637 40.7505
2 0.665709 48.1397
3 1.15033 39.2216
4 0.726774 43.8077
5 0.514724 53.3428
6 1.17127 41.7847
7 1.2256 38.5601
8 0.675431 54.5696
9 1.26117 43.78
10 0.939007 42.5209
11 0.960667 41.1825
12 1.30988 48.0761
13 1.36645 37.7114
14 1.35529 39.2179
15 0.592003 47.2602

Bond Coeffs # harmonic

1 0.003 59.228
2 0.008 56.48
3 0.001 69.324
4 3.207 42.88
5 0.11 49.807
6 0.002 74.968
7 0.001 91.635
8 0.145 54.383
9 2.709 44.406
10 1.71 61.679
11 1.625 54.051
12 0.207 66.185
13 0.002 64.76
14 0.079 63.886
15 0.2 40
16 0.2 40

Angle Coeffs # harmonic

1 11.427 158.273
2 50.464 132.042
3 8.207 156.514
4 92.705 149.394
5 100 174.44
6 3.15 145.53
7 48.938 159.031
8 17.401 129.945
9 15.735 56.441
10 60 172.254
11 60.285 168.396
12 11.83 99.091
13 150 107.995
14 27.746 149.925
15 7.483 160.775

Atoms # full

2554 171 4 0 -1000.9084084883219 -1472.6503766093517 -1463.9825941946306 0 0 1
2552 171 2 0 -985.0288966813235 -1423.3501046248582 -1447.3854844819912 0 0 1
3767 252 2 0 -1567.3950053099104 -1283.2782652722904 -1490.5846203847743 0 0 0
2556 171 6 -0.5 -983.0361064837898 -1309.4979969954513 -1433.8800490931064 0 0 1
2564 171 14 -1.5 -971.7590028985151 -1342.9253464845137 -1460.5330241924141 0 0 1
3773 252 8 0 -1902.6499309355397 -1254.0815010711194 -1499.0375170976226 0 0 0
3770 252 5 0 -1895.758463989915 -1224.6825497186762 -1427.2585117912186 0 0 0
2551 171 1 0 -1343.8858887770698 -1228.9197086437925 -1441.588352593473 0 0 1
1082 73 2 0 -2467.7207925055495 -952.3407126597787 -1439.7596797255537 0 0 1
1802 121 2 0 -2693.006384416004 -633.5917971090328 -1487.0517394545316 0 0 0
5704 381 4 0 -416.39664246258593 -609.2081474758974 -1476.9299543110526 0 0 1
1815 121 15 0 -2728.816192830348 -588.3036425700254 -1436.1556829593267 0 0 0
963 65 3 -1.5 -2655.87436193119 -387.8180762577403 -1491.9058935067978 0 0 0
2926 196 1 0 -2613.110248213496 -421.68191427075095 -1446.1466039607487 0 0 0
2933 196 8 0 -2556.855442513058 -387.482297304512 -1472.7598575727836 0 0 0
972 65 12 0 -2645.1712006977496 -364.3400489432831 -1450.7756589531173 0 0 0
2930 196 5 0 -2528.5409101340038 -325.64138940129055 -1457.3009263637737 0 0 0
2595 173 15 0 -1617.9584157103916 -312.2818407767983 -1468.300878531122 0 0 1
2594 173 14 -1.5 -1642.1513077366765 -358.70375321917794 -1492.9061111922063 0 0 1
1063 71 13 -0.5 -789.9262803719422 217.13839528915608 -1453.9404858231178 0 0 0
4927 329 7 2 -1789.191367829503 507.96164815636763 -1431.9164751750397 0 0 0
4930 329 10 1 -1786.7340361707377 526.1205897721443 -1490.838061847338 0 0 0
5285 353 5 0 -2609.8100612425233 627.0636276367568 -1475.664352952053 0 0 1
1412 95 2 0 -1769.0939163412106 820.7201843227122 -1447.4253292278884 0 0 0
1414 95 4 0 -1785.8109565528414 837.16513783907 -1499.7389114249165 0 0 0
4480 299 10 1 -2124.620893704571 1053.5090663602182 -1463.4612107293042 0 0 0
4352 291 2 0 -2125.341523035141 1104.5714663490612 -1466.4261149717436 0 0 0
2405 161 5 0 -2253.515467206893 1404.9408675438015 -1497.2976240798807 0 -1 0
2412 161 12 0 -2333.434648444828 1477.6697097465596 -1482.5704935957497 0 -1 0
2407 161 7 2 -2323.031689909863 -1492.3834370069435 -1359.5859738533106 0 0 0
2565 171 15 0 -989.0440754314219 -1353.9674460557983 -1394.0021946486606 0 0 1
3780 252 15 0 -1603.1428390765275 -1279.9433616684646 -1396.4506995953157 0 0 0
2559 171 9 0 -1008.2470612847146 -1287.473037027707 -1391.573077323841 0 0 1
3775 252 10 1 -1809.9941549083578 -1224.1174780381555 -1368.2003163738448 0 0 0
3772 252 7 2 -1750.5634721123195 -1239.1720173163271 -1360.5292174127521 0 0 0
3776 252 11 1 -1699.1400952231713 -1256.354097654474 -1352.7729464457789 0 0 0
3774 252 9 0 -1633.8096801704291 -1261.6338581444857 -1351.3395377420434 0 0 0
3771 252 6 -0.5 -1581.8428929822128 -1244.3211250889678 -1352.5055753004763 0 0 0
3779 252 14 -1.5 -1552.101029159768 -1211.762068530358 -1356.5897967848098 0 0 0
2558 171 8 0 -1286.6733418639424 -1214.2608941269666 -1408.343828912529 0 0 1
2561 171 11 1 -1055.114396473823 -1253.1010594133766 -1356.5487663913802 0 0 1
3778 252 13 -0.5 -1924.2527111335173 -1138.61629073105 -1351.4903814711379 0 0 0
3768 252 3 -1.5 -1905.5893437703376 -1177.000880608237 -1352.0242852674621 0 0 0
3777 252 12 0 -1867.1495295382797 -1199.382072100345 -1373.9476675147448 0 0 0
1084 73 4 0 -2484.192553260477 -987.3555183639251 -1401.3775093706606 0 0 1
1814 121 14 -1.5 -2748.169610407462 -654.0347034926508 -1375.869862526647 0 0 0
1806 121 6 -0.5 -2752.7917931963248 -610.0959405703547 -1384.5501381022073 0 0 0
1809 121 9 0 -2748.0987404936004 -558.9003545074675 -1372.0099245408392 0 0 0
1811 121 11 1 -2725.636347556066 -498.7300860183441 -1361.0681165630092 0 0 0
1807 121 7 2 -2695.684690050908 -453.7197404541802 -1354.5699795151552 0 0 0
968 65 8 0 -2798.391690896523 -379.55697022779384 -1421.2063721619124 0 0 0
961 65 1 0 -2869.39097215814 -358.940128185637 -1414.6568958168714 0 0 0
965 65 5 0 -2731.2353889903357 -371.86656055136035 -1423.2637897724053 0 0 0
1812 121 12 0 -2638.508093063265 -344.1037849076614 -1351.6362111952617 0 0 0
1813 121 13 -0.5 -2574.1167373815633 -318.6372520829464 -1404.6316137284693 0 0 0
970 65 10 1 -2613.9042009303753 -321.99056554885925 -1418.0229929470713 0 0 0
1803 121 3 -1.5 -2596.3575405914 -316.76263600485 -1367.5800132596617 0 0 0
964 65 4 0 -2349.1112367504593 -311.15285063022435 -1416.6382061794404 0 0 0
2582 173 2 0 -1593.3439478695375 -336.6926205898713 -1384.6845889846995 0 0 1
1808 121 8 0 -2755.359589397204 -244.30007117590532 -1362.6801851274124 0 0 0
967 65 7 2 -2578.054791557553 -284.3327989108675 -1384.3662489037272 0 0 0
2928 196 3 -1.5 -2571.4933975093213 -233.36429988405007 -1376.8877750765612 0 0 0
2938 196 13 -0.5 -2579.8561489918557 -265.8759890552416 -1350.4795930340304 0 0 0
971 65 11 1 -2546.4952733356245 -249.2223722305646 -1358.5978341145887 0 0 0
962 65 2 0 -2379.335016865616 -268.6709868426852 -1387.532441181276 0 0 0
916 62 1 0 -908.9540210227975 -297.9427777930565 -1373.056415856985 0 0 0
1801 121 1 0 -2763.74163324881 -195.35552137081928 -1387.6453277187643 0 0 0
2937 196 12 0 -2525.808458679969 -219.92554905749444 -1395.1429855350632 0 0 0
2935 196 10 1 -2462.660831254171 -212.8755763852124 -1373.2275060294828 0 0 0
2932 196 7 2 -2406.1439937469436 -194.34302988147064 -1356.7579697190797 0 0 0
653 44 8 0 -25.63551922781054 -80.03834001998317 -1374.6568743529515 0 0 0
646 44 1 0 -11.880915512646256 -32.46131285301546 -1395.8413717592948 0 0 0
1053 71 3 -1.5 -767.8110979280377 235.50471187115264 -1421.60326822921 0 0 0
1062 71 12 0 -728.016638980456 267.18769084493056 -1420.1836133517093 0 0 0
1060 71 10 1 -674.0820295374804 287.4124807000447 -1395.6793510178823 0 0 0
1057 71 7 2 -623.0799156766525 315.16330218764347 -1375.3385785514104 0 0 0
1713 115 3 -1.5 -605.7631292408183 340.9218291810691 -1363.021843592527 0 0 0
1723 115 13 -0.5 -588.4791579335003 301.96966883548924 -1360.1081027290236 0 0 0
1061 71 11 1 -576.4951492958356 338.64262174268566 -1361.3532628996147 0 0 0
1065 71 15 0 -521.2677180265539 410.3187211779202 -1356.357965834837 0 0 0
5281 353 1 0 -2635.2603515021196 517.3859516260787 -1373.6536966287993 0 0 1
4931 329 11 1 -1800.101387519891 491.84561395203434 -1380.8654226329454 0 0 0
1052 71 2 0 -499.85260636935703 454.19736624929607 -1372.3517760138236 0 0 0
1054 71 4 0 -473.88855539699324 497.91009329130674 -1370.0897116781252 0 0 0
5288 353 8 0 -2645.41626320446 568.1822456536033 -1408.891509632558 0 0 1
1725 115 15 0 -393.96707715349373 569.123890374087 -1374.3006700120352 0 0 0
1712 115 2 0 -326.76737553819675 574.7656421336586 -1387.1268533520752 0 0 0
1714 115 4 0 -273.6184267952278 554.1385951835077 -1390.630097519907 0 0 0
1424 95 14 -1.5 -1858.5215016699194 791.2946777791553 -1362.5885734995231 0 0 0
1425 95 15 0 -1794.2612094591782 755.9437889169859 -1370.3293818594207 0 0 0
4365 291 15 0 -2104.609274321661 1119.125960695938 -1364.7687116119553 0 0 0
4364 291 14 -1.5 -2077.523968214205 1056.9989447843898 -1376.1007034792094 0 0 0
4477 299 7 2 -2085.129908742504 1057.7864372035938 -1416.2173187558853 0 0 0
4481 299 11 1 -2055.100701784007 1059.1840180507897 -1371.2592686724201 0 0 0
4356 291 6 -0.5 -2055.038165646023 1089.4501642901694 -1356.4201547721536 0 0 0
2410 161 10 1 -2329.7790194495774 1496.2629187343316 -1420.0548211594044 0 -1 0
2411 161 11 1 -2319.942746357022 -1485.6564770164111 -1306.585640218596 0 0 0
2562 171 12 0 -1211.8165006252955 -1203.4732599043737 -1284.5589293472572 0 0 1
2560 171 10 1 -1157.1261701507985 -1223.3787452139343 -1311.9751107856273 0 0 1
2557 171 7 2 -1100.8000980702236 -1236.1701651249248 -1333.2310639324667 0 0 1
2555 171 5 0 -1268.187165794923 -1189.7375952344296 -1338.1309343197872 0 0 1
1620 108 15 0 -1176.6241307811918 -518.8442886619255 -1288.3407552563503 0 0 0
1607 108 2 0 -1123.2561352458 -512.5812114435879 -1288.004160905722 0 0 0
1609 108 4 0 -1069.2699003631635 -484.951440071294 -1298.3768440330123 0 0 0
5523 369 3 -1.5 -2705.1801021208316 -443.54845031250784 -1290.1887002364415 0 0 0
1810 121 10 1 -2666.585523553825 -400.32766988104095 -1346.4254096886941 0 0 0
5533 369 13 -0.5 -2695.331314574136 -423.2700340228237 -1326.7190405026543 0 0 0
2584 173 4 0 -1582.5246303315837 -345.9989940762992 -1323.9726542748483 0 0 1
923 62 8 0 -907.0193833528116 -314.71193763567135 -1311.9620405758767 0 0 0
1805 121 5 0 -2708.293807641144 -285.3590331951817 -1338.762102434706 0 0 0
975 65 15 0 -2429.109694538412 -236.56586053484452 -1341.6169904400265 0 0 0
969 65 9 0 -2496.4891589739964 -216.23762852221492 -1336.016553819803 0 0 0
966 65 6 -0.5 -2446.1360468865496 -196.90417920634695 -1340.0186246766234 0 0 0
974 65 14 -1.5 -2409.635423739804 -178.25442270462273 -1322.3042179223412 0 0 0
2936 196 11 1 -2357.8335301346133 -187.42731916777643 -1334.8313816050763 0 0 0
2934 196 9 0 -2305.969021855088 -164.30566433652498 -1300.6666012383869 0 0 0
2931 196 6 -0.5 -2255.6871241218364 -152.22857097553356 -1297.6917518494683 0 0 0
2939 196 14 -1.5 -2213.9290543180114 -155.7906861927749 -1282.5935050128394 0 0 0
650 44 5 0 -66.4747813224568 -92.79854255326863 -1293.9878936718821 0 0 0
658 44 13 -0.5 -144.96289570192062 -35.44879910479532 -1298.1067885279817 0 0 0
4924 329 4 0 -1981.852559331783 365.7090885720421 -1345.5934822263707 0 0 0
4922 329 2 0 -1946.5845085088022 401.5449720786171 -1319.7612242702764 0 0 0
4935 329 15 0 -1888.72648774937 440.8657942042158 -1312.7154829768103 0 0 0
4926 329 6 -0.5 -1833.1965733017428 424.94589543303425 -1291.4466420956503 0 0 0
1411 95 1 0 -1509.2993372241597 449.8323851336423 -1303.8203289281112 0 0 0
1722 115 12 0 -599.1406370687305 387.83498999728783 -1345.3552647726847 0 0 0
1720 115 10 1 -565.8212482685664 438.5483936985369 -1344.358201180811 0 0 0
1059 71 9 0 -532.9475505375644 381.3641122492857 -1339.8242404021375 0 0 0
1056 71 6 -0.5 -514.2944437655132 429.03673924654544 -1320.3154875585267 0 0 0
4929 329 9 0 -1818.2310159628646 463.2986328681462 -1325.9160298083216 0 0 0
1418 95 8 0 -1516.8151145943698 509.96424091144684 -1294.4903520548714 0 0 0
1717 115 7 2 -528.4449849231122 488.0837366453083 -1343.5993911791936 0 0 0
1064 71 14 -1.5 -499.9970811759263 470.9445432426721 -1327.584752651855 0 0 0
1420 95 10 1 -1700.869325780211 577.5761558671271 -1280.6541853600588 0 0 0
1415 95 5 0 -1587.6632184820455 534.8291789178857 -1292.5773995603015 0 0 0
1721 115 11 1 -492.8424598875591 527.5747737907343 -1336.9094679744917 0 0 0
1719 115 9 0 -437.7897660654232 564.1448739819867 -1337.049316826857 0 0 0
1716 115 6 -0.5 -385.598077076571 580.3424477216755 -1335.9062496892236 0 0 0
1724 115 14 -1.5 -342.5421063841811 575.5957731954211 -1345.613131889032 0 0 0
1421 95 11 1 -1770.4531741764506 658.9365193931117 -1322.7303094779804 0 0 0
1417 95 7 2 -1738.2589295956366 622.2581996163157 -1300.5671976393198 0 0 0
1419 95 9 0 -1809.6951940068582 711.6051821354132 -1339.6713256078694 0 0 0
1416 95 6 -0.5 -1834.0342335765495 760.9776316271912 -1340.8448360777525 0 0 0
4081 273 1 0 -955.5147251696104 782.593685090257 -1286.1947020410212 0 0 0
4485 299 15 0 -1976.1017204621278 1028.0481123949148 -1294.6781772213978 0 0 0
4232 283 2 0 -1921.9050969267655 1015.6433648789142 -1281.9573021930862 0 0 0
4244 283 14 -1.5 -2063.6498375841593 1059.5536059315993 -1325.0289079188647 0 0 0
4236 283 6 -0.5 -2038.6835358275096 1088.4110982081684 -1301.720272905626 0 0 0
4479 299 9 0 -2006.5628000576266 1068.4536746987521 -1331.2392755299202 0 0 0
4476 299 6 -0.5 -1953.986345558051 1073.6918931386872 -1315.3548666432919 0 0 0
4484 299 14 -1.5 -1921.4329482861751 1096.1426124851807 -1295.8144542821376 0 0 0
4359 291 9 0 -2059.258577707295 1129.6340933856916 -1324.655230192238 0 0 0
4361 291 11 1 -2059.370594569656 1185.069308725714 -1292.8989375759302 0 0 0
2409 161 9 0 -2294.977655686531 -1481.8407706850876 -1243.1164988965963 0 0 0
3630 242 15 0 -152.38007238222832 -1443.6019440037544 -1213.499311325749 0 0 0
2415 161 15 0 -2278.4886799758397 -1424.7026434923805 -1204.9367987047171 0 0 0
2553 171 3 -1.5 -1232.5900263525646 -1175.135403638128 -1249.352914478194 0 0 1
2563 171 13 -0.5 -1225.9620114801855 -1135.965180124979 -1234.2208234718998 0 0 1
253 17 13 -0.5 -1292.7860268804923 -610.9421701147666 -1203.5957392335758 0 0 0
1612 108 7 2 -1317.5858096909813 -594.2767466465277 -1229.0638091500784 0 0 0
1616 108 11 1 -1279.3362704914302 -561.995504068868 -1248.8081082705698 0 0 0
252 17 12 0 -1246.2312372323552 -542.756871352299 -1217.580199925426 0 0 0
250 17 10 1 -1190.969378657172 -527.0774865601757 -1238.0460558400257 0 0 0
5525 369 5 0 -2750.319269029185 -492.27625699574907 -1242.847489033936 0 0 0
245 17 5 0 -1317.0328400022922 -464.4032462495055 -1230.0292972500374 0 0 0
1614 108 9 0 -1240.7509695862357 -513.1460385142316 -1267.8861055533196 0 0 0
1611 108 6 -0.5 -1199.257943081158 -482.3313706729842 -1264.334497642909 0 0 0
1619 108 14 -1.5 -1155.1700471211304 -478.0652451959167 -1266.9988211290986 0 0 0
247 17 7 2 -1134.2236294165384 -506.28922205755674 -1248.5838399136346 0 0 0
251 17 11 1 -1083.515302473997 -488.4172455464938 -1252.442259481388 0 0 0
249 17 9 0 -1029.1670835437017 -451.9215315746412 -1255.1646491266474 0 0 0
5532 369 12 0 -2718.270411008675 -427.2088944068204 -1244.1640439073706 0 0 0
248 17 8 0 -1396.5070552264913 -419.60166770422404 -1241.0946649752693 0 0 0
255 17 15 0 -983.094296468334 -446.16789759611913 -1210.4980530134546 0 0 0
246 17 6 -0.5 -976.4064711245911 -437.251823157 -1261.8745305259977 0 0 0
254 17 14 -1.5 -940.4484707500236 -416.0213167470017 -1246.5572758873298 0 0 0
920 62 5 0 -910.2818641535142 -367.55756012339947 -1216.6981381485007 0 0 0
2927 196 2 0 -2197.831259470811 -257.09818234013716 -1218.1401094500764 0 0 0
2940 196 15 0 -2246.3716030117794 -204.6889851277885 -1258.8639720845752 0 0 0
3121 209 1 0 -1390.4492094372147 -158.73728533754758 -1230.2560293164572 0 0 0
5431 363 1 0 -443.40025893745883 -179.88278361159453 -1241.2878344593694 0 0 0
657 44 12 0 -106.45645452096902 -89.94146601050376 -1243.5629842792448 0 0 0
648 44 3 -1.5 -123.37660624957381 -45.733987125047086 -1262.5660424366913 0 0 0
1715 115 5 0 -641.7967961605657 373.7417036110399 -1241.3066647663452 0 0 0
4934 329 14 -1.5 -1850.6347690538908 415.29998177722985 -1251.4469074129152 0 0 0
1422 95 12 0 -1671.9061736106414 523.2615802062198 -1264.4197572508467 0 0 0
1413 95 3 -1.5 -1646.4903015429713 502.504359021456 -1225.4033028640283 0 0 0
1423 95 13 -0.5 -1614.760200488688 474.4171784631517 -1220.4507605901904 0 0 0
4653 311 3 -1.5 -1215.750653631961 786.4769204355395 -1231.5205107048523 0 0 0
4663 311 13 -0.5 -1193.7065370338887 753.3568272402784 -1248.2848502953125 0 0 0
4088 273 8 0 -977.4868699497674 828.9089107605563 -1263.517641395651 0 0 0
4085 273 5 0 -1016.4193407611024 853.7033896138952 -1208.5065792815253 0 0 0
4472 299 2 0 -1923.4769535041403 968.060096133415 -1262.5095418165201 0 0 0
4474 299 4 0 -1855.9749282176697 950.6866629024237 -1254.730721079503 0 0 0
4234 283 4 0 -1881.8979540939447 986.904484369995 -1273.1416921367825 0 0 0
4245 283 15 0 -1976.1630261595885 1070.375366127057 -1261.9879802669552 0 0 0
4239 283 9 0 -2035.1836735674526 1133.851727580759 -1272.6101797965061 0 0 0
4241 283 11 1 -2044.8514558153768 1193.7274487293967 -1245.6699895323923 0 0 0
4357 291 7 2 -2066.8645764080525 1234.5647378758918 -1273.5318111451088 0 0 0
4237 283 7 2 -2064.597925261384 1241.3136386491572 -1225.796448358615 0 0 0
4185 279 15 0 -553.5414313098667 1228.3699263909255 -1224.2785126837994 0 0 0
4172 279 2 0 -489.99979588706174 1253.5862171778965 -1239.6041353614103 0 0 0
4360 291 10 1 -2072.126569936413 1293.7215089412825 -1252.5008311695615 0 0 0
4240 283 10 1 -2088.7269545409526 1292.5318233326516 -1202.3291346879078 0 0 0
4174 279 4 0 -439.3290543262128 1279.5937272140177 -1223.4137806728077 0 0 0
5385 359 15 0 -350.4616697708028 1309.1717416273425 -1223.8376645724966 0 0 0
5372 359 2 0 -272.4122776992533 1345.5263104921314 -1216.1160904973856 0 0 0
4362 291 12 0 -2087.034879690487 1356.3520067409409 -1230.8023614371016 0 0 0
4261 285 1 0 -715.2486822409718 1456.0962514638338 -1203.7041297101866 0 0 0
2406 161 6 -0.5 -2269.995573313541 -1494.8910573207388 -1197.8136635830017 0 0 0
2414 161 14 -1.5 -2257.8166953064333 -1484.0318061859489 -1156.4337257302618 0 0 0
3621 242 6 -0.5 -203.69189645890143 -1469.1025849220212 -1195.4575975200828 0 0 0
3617 242 2 0 -75.22710322550141 -1482.4742973841142 -1189.9216317615233 0 0 0
2402 161 2 0 -2293.0378066275102 -1358.1031279552908 -1189.2194577647845 0 0 0
3626 242 11 1 -237.51382205891832 -1362.3543036883925 -1159.682151531641 0 0 0
3624 242 9 0 -210.76640513446532 -1420.8849901212664 -1175.0363348102399 0 0 0
2404 161 4 0 -2300.269775173208 -1329.7814801087172 -1174.036511883024 0 0 0
3622 242 7 2 -260.25624692928204 -1318.1027082803737 -1138.148419632018 0 0 0
3616 242 1 0 -560.3648128885596 -1248.908733343392 -1150.5911413343094 0 0 0
3623 242 8 0 -499.64185324962085 -1242.5732195649757 -1141.965246390238 0 0 0
2663 178 8 0 -275.8228469366216 -801.6904162542596 -1147.233192844356 0 0 0
2662 178 7 2 -93.35684541440783 -823.5364656913283 -1127.7698528224632 0 0 0
2666 178 11 1 -48.19914211660634 -806.2640974983954 -1150.825580517267 0 0 0
1608 108 3 -1.5 -1421.488299449385 -695.6925248969982 -1136.167336767395 0 0 0
2656 178 1 0 -298.6461101450983 -738.4228833534588 -1175.924679320718 0 0 0
1615 108 10 1 -1361.648841100508 -623.9090874261085 -1197.3481101256639 0 0 0
1617 108 12 0 -1406.7767351070668 -654.1696598905207 -1163.8645563042821 0 0 0
5521 369 1 0 -2785.3994100072446 -593.562561776386 -1172.9811683602222 0 0 0
5528 369 8 0 -2798.1580704008898 -543.44383553438 -1196.154699359401 0 0 0
243 17 3 -1.5 -1278.326167901878 -572.0337684349909 -1191.7547492737094 0 0 0
242 17 2 0 -915.1097223939919 -475.96156797463414 -1175.6721045054924 0 0 0
244 17 4 0 -853.4273611151425 -465.16893668269176 -1152.8063550241855 0 0 0
5530 369 10 1 -2699.6509556790115 -418.4901293412059 -1185.1704589648425 0 0 0
5527 369 7 2 -2681.217985679847 -420.78751375521364 -1125.449284776388 0 0 0
241 17 1 0 -1429.9891148998438 -393.0982763785952 -1194.4404752424298 0 0 0
927 62 12 0 -900.0947330142461 -428.96904364539523 -1136.559957951877 0 0 0
2929 196 4 0 -2164.4536721797617 -275.8729374500708 -1183.1573397785396 0 0 0
3128 209 8 0 -1358.0154352421393 -168.12778361577654 -1185.8698846491402 0 0 0
5438 363 8 0 -473.23656169106187 -179.89992038572024 -1197.0710830185355 0 0 0
5435 363 5 0 -519.4617613128725 -209.26627522810557 -1143.9286098934037 0 0 0
652 44 7 2 -58.94427387051982 -164.44247876224696 -1149.9154907830803 0 0 0
3125 209 5 0 -1319.950354958407 -136.71953523430574 -1135.3697927780202 0 0 0
5059 338 4 0 -701.2537597023901 -133.79125550948032 -1175.2807749784654 0 0 0
655 44 10 1 -83.70571699561134 -130.80787049214288 -1195.7972591076737 0 0 0
1294 87 4 0 -784.3951811797247 353.87488863830583 -1139.4103342827214 0 0 0
1718 115 8 0 -651.2615930878384 396.6686501335592 -1155.1802324886048 0 0 0
1711 115 1 0 -592.0958687687024 383.34118906293776 -1141.069436383382 0 0 0
3021 202 6 -0.5 -465.47353500001117 457.56550805003116 -1141.1617647112785 0 0 0
3029 202 14 -1.5 -463.0258179559298 472.4429384800772 -1183.2541356730178 0 0 0
5173 345 13 -0.5 -2135.4691131400596 708.5520623210696 -1182.4451006117622 0 0 0
5163 345 3 -1.5 -2109.7182117871666 695.4417116734467 -1151.0880396712764 0 0 0
5165 345 5 0 -2002.959906566088 703.0468754413005 -1155.4732155689337 0 0 0
5168 345 8 0 -1914.0915887994431 727.2702153273985 -1163.7201412542397 0 0 0
5161 345 1 0 -1907.5955679899778 753.4096017504268 -1192.1520566925396 0 0 0
4655 311 5 0 -1253.018071163284 777.2309827147329 -1136.6230311033455 0 0 0
4662 311 12 0 -1209.0743932542118 814.8523230195825 -1189.3296946179657 0 0 0
4660 311 10 1 -1174.904444952524 857.4129964015867 -1155.2189435421833 0 0 0
4093 273 13 -0.5 -1128.4878720240422 875.1889492141157 -1165.1801991326627 0 0 0
4657 311 7 2 -1132.8515513540367 892.1860638603247 -1127.779153052669 0 0 0
4083 273 3 -1.5 -1092.134037355695 888.1521071849388 -1145.519181142933 0 0 0
4066 272 1 0 -2679.5215030153067 968.7725052918967 -1146.1108854590802 0 0 0
4092 273 12 0 -1051.365027404397 915.0263459446346 -1150.950213874944 0 0 0
4652 311 2 0 -950.2007893345427 1024.974488162245 -1133.2927940568522 0 0 0
5626 376 1 0 -1051.416527680347 1185.824491309074 -1154.997660219116 0 0 0
5633 376 8 0 -1056.7816805692025 1139.6258081467083 -1125.0355355309352 0 0 0
4180 279 10 1 -772.602468349762 1134.6522471035037 -1131.3275341076835 0 0 0
4177 279 7 2 -721.0482724924798 1161.868972991278 -1151.6654235557219 0 0 0
4181 279 11 1 -673.4620003503945 1182.1111014720316 -1165.7631677632357 0 0 0
4901 327 11 1 -628.5838078297047 1181.8093498850074 -1144.4496398913468 0 0 0
4263 285 3 -1.5 -643.4211075015913 1195.1890363360046 -1133.6490577508378 0 0 0
4897 327 7 2 -674.8595260677099 1157.5534490869309 -1130.6789621094558 0 0 0
4178 279 8 0 -979.4758056842062 1215.3446396451754 -1165.0454547004124 0 0 0
4175 279 5 0 -886.9194860430324 1206.5008516883943 -1148.010353632755 0 0 0
5373 359 3 -1.5 -686.6823093718674 1220.5539276023985 -1129.8288251022223 0 0 0
4179 279 9 0 -616.4236589582417 1213.6118086978506 -1169.6906198696536 0 0 0
5382 359 12 0 -644.3301201998509 1246.2290179561594 -1142.575412947781 0 0 0
4176 279 6 -0.5 -582.6887177493313 1256.6463687310163 -1171.096603724014 0 0 0
5380 359 10 1 -580.8872443669817 1246.9598395588696 -1157.3566186641685 0 0 0
4899 327 9 0 -567.1860027722119 1204.499163309409 -1167.515416823492 0 0 0
4270 285 10 1 -537.966777664204 1233.423165853776 -1129.6023122608074 0 0 0
4896 327 6 -0.5 -527.4584391446366 1231.4288465465581 -1185.2298246641824 0 0 0
5377 359 7 2 -521.6409519472933 1254.890244287194 -1173.146479686185 0 0 0
4904 327 14 -1.5 -485.04809205287177 1246.4722422927844 -1183.295245688276 0 0 0
5381 359 11 1 -468.8824027018169 1265.4198123222254 -1179.2536641487466 0 0 0
4267 285 7 2 -484.4511811280816 1261.8482091996618 -1137.3178258478663 0 0 0
5379 359 9 0 -400.1231842091095 1262.7282101426933 -1175.6648716936759 0 0 0
5376 359 6 -0.5 -346.59775666986826 1264.4892082891843 -1181.772295321677 0 0 0
5384 359 14 -1.5 -305.8165160894603 1267.7314575088303 -1163.6507597911684 0 0 0
4262 285 2 0 -191.81165881330114 1247.3093967432096 -1131.6814713289318 0 0 0
4264 285 4 0 -145.37056527112043 1206.4916879894104 -1125.2749322271561 0 0 0
4351 291 1 0 -2248.1910659150976 1279.5222570560475 -1164.1280213748341 0 0 0
4358 291 8 0 -2225.4348273843434 1312.7399612896502 -1187.3130472184755 0 0 0
4242 283 12 0 -2120.7604118784557 1339.9100210325862 -1171.2121042814579 0 0 0
4265 285 5 0 -661.8200244376128 1325.5978209061316 -1131.8882081761162 0 0 0
4184 279 14 -1.5 -550.0962707508131 1280.0686153414724 -1188.5537660801278 0 0 0
4905 327 15 0 -548.9656215947055 1283.3970691138109 -1143.509091780721 0 0 0
4271 285 11 1 -436.1285367063824 1283.2789199984745 -1149.1551922396427 0 0 0
4269 285 9 0 -370.54602608006735 1298.3771257824587 -1155.5324520863342 0 0 0
4266 285 6 -0.5 -321.45802167008105 1305.8998983668607 -1175.3232327150681 0 0 0
4274 285 14 -1.5 -278.0061800927383 1311.0203844913162 -1170.4909999254096 0 0 0
4243 283 13 -0.5 -2174.859583537375 1399.9070489198057 -1176.0698875569667 0 0 0
4355 291 5 0 -2169.036534341431 1356.223009998216 -1189.2989333666692 0 0 0
4233 283 3 -1.5 -2135.7635807938705 1384.9639048655165 -1169.6165414585198 0 0 0
4353 291 3 -1.5 -2076.4687120717217 1391.2195800461534 -1194.5787331184147 0 0 0
4363 291 13 -0.5 -2040.1613409800343 1398.6254935015481 -1172.0355995402447 0 0 0
4268 285 8 0 -693.7773737617094 1400.3717343202752 -1181.7201258398877 0 0 0
4892 327 2 0 -545.2650773231992 1370.497047372565 -1137.1408176242874 0 0 0
5374 359 4 0 -243.91989134334543 1383.0264245238186 -1187.694243503729 0 0 0
4894 327 4 0 -524.4588802119589 1427.4979497027387 -1142.5983071647602 0 0 0
3629 242 14 -1.5 -194.44947713838047 1488.0529850790176 -1191.2222419198752 0 -1 0
3619 242 4 0 -27.59469727207662 1485.8470148302786 -1168.6875487140364 0 -1 0
3863 258 8 0 -264.3517347745764 -1284.6398243494689 -1052.9663709712158 0 0 0
3620 242 5 0 -409.75897943793314 -1203.9204575070457 -1115.5102490861968 0 0 0
3627 242 12 0 -311.1553567645215 -1215.1237835155157 -1091.622134416484 0 0 0
3625 242 10 1 -289.0336980128192 -1271.057904163579 -1109.8496848106925 0 0 0
3628 242 13 -0.5 -318.0743936877146 -1134.4643476685567 -1107.044674783049 0 0 0
3618 242 3 -1.5 -297.408875700909 -1167.321235785775 -1089.5059589348689 0 0 0
1308 88 3 -1.5 -174.90295241217444 -933.611166215012 -1066.2297731786957 0 0 0
1318 88 13 -0.5 -212.3645131567613 -922.0177444321455 -1083.4715735468812 0 0 0
2660 178 5 0 -253.88333834624123 -855.2158281153842 -1098.993807823161 0 0 0
2667 178 12 0 -188.70096416229077 -878.370864336472 -1067.3702212688186 0 0 0
2665 178 10 1 -140.8859544268534 -847.7723146233172 -1096.558746005854 0 0 0
3436 230 1 0 -1984.415466675801 -747.4605531497064 -1063.3180339702676 0 0 0
1618 108 13 -0.5 -1396.0167982279615 -724.2085858043243 -1116.3767279288654 0 0 0
1610 108 5 0 -1435.1821699270777 -590.4078498757007 -1103.3436679418926 0 0 0
1606 108 1 0 -1505.7019205284096 -504.63501781212585 -1078.7591131368192 0 0 0
1613 108 8 0 -1471.1370492154317 -523.2644062862544 -1101.8668105813842 0 0 0
5531 369 11 1 -2659.649938370916 -417.5127959655422 -1075.365907564126 0 0 0
928 62 13 -0.5 -979.9241627968196 -437.19396348232164 -1104.8299159005537 0 0 0
918 62 3 -1.5 -944.6719544818342 -417.5438361195023 -1119.5141277826456 0 0 0
925 62 10 1 -840.3611414934217 -423.44757963852487 -1114.3661424855657 0 0 0
922 62 7 2 -782.648958290714 -408.7304066150448 -1096.6309507630538 0 0 0
3388 226 13 -0.5 -792.8387530909633 -389.4273084475914 -1062.4149680054245 0 0 0
3378 226 3 -1.5 -752.1070241712333 -388.4680998821453 -1050.4565265597819 0 0 0
926 62 11 1 -732.5798595307865 -399.1071655214573 -1080.261636411489 0 0 0
930 62 15 0 -625.2331050764936 -400.92431126772266 -1100.1427829999977 0 0 0
924 62 9 0 -666.0073972581517 -387.9339196807779 -1078.9943760704377 0 0 0
917 62 2 0 -542.2950931539553 -410.5588278717546 -1117.1534694637887 0 0 0
919 62 4 0 -500.81697740413244 -410.0320880318507 -1116.7715106246171 0 0 0
3387 226 12 0 -715.9737804869004 -356.12128369156386 -1067.1879989507368 0 0 0
921 62 6 -0.5 -617.8552018010104 -366.0676938626025 -1076.5967551679355 0 0 0
3385 226 10 1 -655.6649440956064 -326.53868300439063 -1064.7332550321194 0 0 0
5443 363 13 -0.5 -603.9821487393986 -306.75148878308664 -1085.4022356100297 0 0 0
929 62 14 -1.5 -591.6206165828726 -331.00353497916944 -1068.5885379032711 0 0 0
5433 363 3 -1.5 -593.2057598983647 -266.18512312723664 -1076.1831658968642 0 0 0
5442 363 12 0 -551.1854071771407 -237.82137320264286 -1066.437774657229 0 0 0
3376 226 1 0 -863.3956167192247 -172.54381977209098 -1066.286145395792 0 0 0
5070 338 15 0 -800.9561301105817 -174.90780141626013 -1060.5396406185487 0 0 0
656 44 11 1 -42.769168903199756 -188.67808078192076 -1104.6633529824933 0 0 0
3122 209 2 0 -943.8941377273128 -131.34584552077746 -1052.8913713928248 0 0 0
3124 209 4 0 -891.4241545874967 -145.2726054157538 -1053.0130799833485 0 0 0
5057 338 2 0 -729.4370391039707 -138.79256140531984 -1117.1194251488246 0 0 0
3016 202 1 0 -824.3754397200001 244.6024151889059 -1081.915612442021 0 0 0
1291 87 1 0 -1059.283280087613 361.6851664827095 -1057.6017292355943 0 0 0
1292 87 2 0 -779.1354537008804 348.29903567065816 -1078.745079563637 0 0 0
3019 202 4 0 -311.9362148507126 357.1883746342328 -1100.4192996526717 0 0 0
1003 67 13 -0.5 -1048.4785905904857 396.04778868434016 -1096.355986342533 0 0 0
993 67 3 -1.5 -1039.332228539017 413.67115945254034 -1058.7988467174025 0 0 0
3026 202 11 1 -545.7330152566556 418.9566154040246 -1067.3717752070381 0 0 0
3022 202 7 2 -594.8094615484061 408.0456406833631 -1050.3244415471515 0 0 0
3024 202 9 0 -493.54891992144377 445.96787507779794 -1096.7782694064824 0 0 0
3030 202 15 0 -420.0439048754384 431.3630449619933 -1102.6671386359421 0 0 0
3017 202 2 0 -360.07671634889334 405.81701450676195 -1110.1679550128981 0 0 0
3523 235 13 -0.5 -1406.468146148414 573.147510286435 -1104.5842447889975 0 0 0
3513 235 3 -1.5 -1397.2370324811423 614.4041674248742 -1098.3860043870534 0 0 0
3522 235 12 0 -1389.8062180728266 638.1353813480205 -1054.146542623118 0 0 0
5172 345 12 0 -2075.5132718416503 720.9054508058056 -1119.5695595874192 0 0 0
4651 311 1 0 -1386.4577043504999 721.3268230411356 -1084.1291168572113 0 0 0