LAMMPS data file via write_data, version 27 Jun 2024, timestep = 24320000, units = real

5730 atoms
15 atom types
5625 bonds
16 bond types
5730 angles
15 angle types

-3000 3000 xlo xhi
-1500 1500 ylo yhi
-1500 1500 zlo zhi

Masses

1 241.19
2 73.54000000000001
3 330.71
4 235.16
5 68.06999999999999
6 353.53
7 223.38
8 41.1
9 216.91
10 155.15
11 147.32
12 264.65
13 300.8
14 326.05
15 85.20999999999999

Pair Coeffs # lj/cut/coul/debye/gpu

1 0.71637 40.7505
2 0.665709 48.1397
3 1.15033 39.2216
4 0.726774 43.8077
5 0.514724 53.3428
6 1.17127 41.7847
7 1.2256 38.5601
8 0.675431 54.5696
9 1.26117 43.78
10 0.939007 42.5209
11 0.960667 41.1825
12 1.30988 48.0761
13 1.36645 37.7114
14 1.35529 39.2179
15 0.592003 47.2602

Bond Coeffs # harmonic

1 0.003 59.228
2 0.008 56.48
3 0.001 69.324
4 3.207 42.88
5 0.11 49.807
6 0.002 74.968
7 0.001 91.635
8 0.145 54.383
9 2.709 44.406
10 1.71 61.679
11 1.625 54.051
12 0.207 66.185
13 0.002 64.76
14 0.079 63.886
15 0.2 40
16 0.2 40

Angle Coeffs # harmonic

1 11.427 158.273
2 50.464 132.042
3 8.207 156.514
4 92.705 149.394
5 100 174.44
6 3.15 145.53
7 48.938 159.031
8 17.401 129.945
9 15.735 56.441
10 60 172.254
11 60.285 168.396
12 11.83 99.091
13 150 107.995
14 27.746 149.925
15 7.483 160.775

Atoms # full

2410 161 10 1 -2342.1684096174945 -1441.8555302308544 -1462.1507136877935 0 0 0
2554 171 4 0 -892.8582714834126 -1366.7256465548678 -1472.0632912016044 0 0 1
3780 252 15 0 -1551.7455690853376 -1281.1022269534853 -1439.4021948158934 0 0 0
3767 252 2 0 -1497.1059899140732 -1303.2817858090104 -1483.8683652634197 0 0 0
3770 252 5 0 -1877.9950996524096 -1237.0903833240634 -1464.07086364065 0 0 0
2561 171 11 1 -1042.242734489093 -1243.2955380987785 -1461.2314858284524 0 0 1
1082 73 2 0 -2433.3806636921286 -973.8210783670684 -1457.311349312045 0 0 1
1804 121 4 0 -2588.635174269376 -684.8833818314763 -1468.163903769192 0 0 0
1802 121 2 0 -2609.1307069478858 -648.6235531697454 -1426.8058539937977 0 0 0
2926 196 1 0 -2530.361814248698 -467.8070559608114 -1446.8825518713888 0 0 0
5702 381 2 0 -347.063920365133 -483.8858554053045 -1450.8858585228318 0 0 1
963 65 3 -1.5 -2662.3032145559423 -394.03231607938386 -1498.5035142723275 0 0 0
2933 196 8 0 -2543.573285868885 -409.0497377761946 -1440.1478559655375 0 0 0
972 65 12 0 -2647.04595023818 -364.34254382754665 -1464.3195375329656 0 0 0
970 65 10 1 -2597.845561176062 -341.52884006382345 -1434.5216167637486 0 0 0
2930 196 5 0 -2506.6915989628974 -341.95755020340755 -1425.3220784515552 0 0 0
2595 173 15 0 -1563.4502704405973 -313.3760439373322 -1490.673564605438 0 0 1
2928 196 3 -1.5 -2559.2516406044065 -260.08385147849873 -1433.77023105674 0 0 0
2937 196 12 0 -2506.5371156311458 -257.04572995213425 -1430.098629111761 0 0 0
1801 121 1 0 -2801.57757268918 -221.79821349688098 -1428.4629892491887 0 0 0
1063 71 13 -0.5 -731.2308818872358 201.82798234125994 -1434.12702873499 0 0 0
1055 71 5 0 -744.2344387856884 329.2977018865168 -1494.7895788198884 0 0 0
4927 329 7 2 -1778.5122773097928 520.1649442064833 -1428.9975319823238 0 0 0
5288 353 8 0 -2619.471194906839 575.5651138547324 -1438.8332543565805 0 0 1
4930 329 10 1 -1748.0122154118606 536.5287892268634 -1480.5382194853241 0 0 0
1712 115 2 0 -283.01056565092233 536.7071277556864 -1488.4854578210477 0 0 0
1424 95 14 -1.5 -1846.3166343327532 737.6401094591553 -1445.899004651806 0 0 0
1412 95 2 0 -1726.7327142756278 838.2908619245308 -1435.2179550077033 0 0 0
1414 95 4 0 -1721.6619559969088 902.3103223414793 -1450.9448801511348 0 0 0
4352 291 2 0 -2144.2288913584002 1087.4507790730736 -1468.8883673297378 0 0 0
4480 299 10 1 -2103.8617050841026 1066.7637623783694 -1477.3947245943475 0 0 0
4477 299 7 2 -2068.999017007836 1079.5279247000535 -1428.5564880324375 0 0 0
2407 161 7 2 -2317.1767191664444 -1435.969811544785 -1406.4896357128318 0 0 0
2411 161 11 1 -2294.583813124212 -1436.4754282322474 -1357.8113737425954 0 0 0
3777 252 12 0 -1835.7470620395288 -1216.2958125903194 -1365.6266767912787 0 0 0
3775 252 10 1 -1770.8346776487897 -1225.6925768529413 -1367.124307945866 0 0 0
3776 252 11 1 -1655.626914221096 -1235.1600665610197 -1359.9597212066917 0 0 0
3772 252 7 2 -1709.756623030097 -1230.3715274199312 -1366.4173781323589 0 0 0
3774 252 9 0 -1592.680871242567 -1240.3727988473527 -1382.3886195716357 0 0 0
3771 252 6 -0.5 -1541.4925101648655 -1227.8173563389098 -1392.6120564542946 0 0 0
3779 252 14 -1.5 -1500.8289713069712 -1240.8936794018273 -1383.7781327405307 0 0 0
2557 171 7 2 -1073.7365282001115 -1223.369082162015 -1421.6530436618675 0 0 1
2560 171 10 1 -1117.149279759866 -1208.6038951682497 -1380.1516679579845 0 0 1
2551 171 1 0 -1339.1643293269328 -1199.4059443743151 -1411.6283798661852 0 0 1
2558 171 8 0 -1294.5761943252671 -1161.6807831509982 -1402.9217235292256 0 0 1
2555 171 5 0 -1229.21712708751 -1159.5200413728437 -1366.0302455221492 0 0 1
1084 73 4 0 -2432.291501106488 -963.8388356712279 -1405.6788931629126 0 0 1
1814 121 14 -1.5 -2748.279937170939 -630.3447644992957 -1389.1897746561178 0 0 0
1815 121 15 0 -2652.4524984858444 -602.2755687379041 -1410.6920288074464 0 0 0
1806 121 6 -0.5 -2722.597246522041 -596.5661337575343 -1374.5716188708975 0 0 0
1809 121 9 0 -2700.2156969622924 -548.6451300585683 -1385.245763312729 0 0 0
5533 369 13 -0.5 -2704.9769974929054 -510.99563254548866 -1359.6489693808044 0 0 0
1811 121 11 1 -2682.3617640405882 -483.1170019738397 -1384.9835404963808 0 0 0
5704 381 4 0 -343.82065469556125 -508.67820319096245 -1393.3327820392988 0 0 1
1807 121 7 2 -2656.857006124981 -435.3926960345883 -1381.0279824767533 0 0 0
1810 121 10 1 -2635.6362637620578 -378.65240698350556 -1389.3472491299153 0 0 0
241 17 1 0 -1320.2241907862683 -410.76829223896505 -1361.4131238284567 0 0 0
968 65 8 0 -2821.865467281797 -315.2824335708819 -1370.611972924083 0 0 0
965 65 5 0 -2749.0570875440585 -327.3632890377675 -1409.8208546639046 0 0 0
1812 121 12 0 -2612.8659840983673 -319.38036930653925 -1391.0373721054245 0 0 0
967 65 7 2 -2549.0124217197226 -311.0126788339264 -1412.1913995871919 0 0 0
2582 173 2 0 -1574.5596332758546 -330.08985795299856 -1387.3266698426032 0 0 1
916 62 1 0 -920.8341293533339 -308.8242550805154 -1355.5765417742775 0 0 0
1808 121 8 0 -2729.2681025894253 -235.3714566270638 -1391.0714553580035 0 0 0
1805 121 5 0 -2677.5927446840356 -255.6982929842364 -1377.794213024316 0 0 0
2938 196 13 -0.5 -2584.740380785157 -291.18400921462495 -1418.7510637882708 0 0 0
1803 121 3 -1.5 -2584.7631619819413 -285.841833168558 -1413.3165423051416 0 0 0
1813 121 13 -0.5 -2544.3506106086484 -271.61133554677133 -1407.0745531942657 0 0 0
971 65 11 1 -2503.34961193321 -290.2515847865524 -1392.3090553111174 0 0 0
2935 196 10 1 -2451.990892987659 -239.89851982897005 -1397.2553609645993 0 0 0
969 65 9 0 -2451.38670874349 -270.9172892880182 -1351.9173460712916 0 0 0
2932 196 7 2 -2402.6714373959903 -226.46333018250414 -1362.6235183193317 0 0 0
653 44 8 0 -13.673474321783162 -59.48455652690833 -1355.041281828397 0 0 0
1053 71 3 -1.5 -729.662260802083 238.79221551222167 -1412.4010769541135 0 0 0
1062 71 12 0 -699.1576213810758 277.93569918604135 -1408.114430794507 0 0 0
1060 71 10 1 -661.5834277166903 319.7541780918267 -1373.11361356038 0 0 0
1057 71 7 2 -612.7261859434135 351.30059518689467 -1351.718922969128 0 0 0
1065 71 15 0 -471.1894597349193 448.3624135760356 -1361.0738955274242 0 0 0
4931 329 11 1 -1809.3070915567694 509.36619555901996 -1385.4336002855546 0 0 0
1052 71 2 0 -414.6782810813651 472.0043924547396 -1371.6722936209112 0 0 0
1054 71 4 0 -360.15841073425287 476.5685654343861 -1366.296302283988 0 0 0
5281 353 1 0 -2663.916986715546 548.3358660075121 -1389.4195009962734 0 0 1
1725 115 15 0 -293.6076799643497 537.5303153462851 -1391.2611383690398 0 0 0
1416 95 6 -0.5 -1814.4243125744583 724.4713141577839 -1419.111565034708 0 0 0
1419 95 9 0 -1792.0548651872186 708.4220210690091 -1373.751865343349 0 0 0
1425 95 15 0 -1777.9972249172797 769.6123316575978 -1407.0273139142173 0 0 0
4365 291 15 0 -2090.634724733751 1110.4938353260245 -1402.7175893439955 0 0 0
4364 291 14 -1.5 -2056.4654516588835 1053.6834791643623 -1403.3621460826841 0 0 0
4356 291 6 -0.5 -2047.980750302337 1093.1318794505285 -1383.8234568508847 0 0 0
4481 299 11 1 -2041.3790317210485 1085.8599779466851 -1381.889267128195 0 0 0
4359 291 9 0 -2065.8186711678777 1135.943953451436 -1359.0184419683083 0 0 0
2409 161 9 0 -2279.074076009338 -1460.0406512697914 -1296.3722453598716 0 0 0
3768 252 3 -1.5 -1880.805235587295 -1221.8443040099241 -1341.9008967095588 0 0 0
3778 252 13 -0.5 -1919.6247987411139 -1203.452147221996 -1341.175765346963 0 0 0
2562 171 12 0 -1158.7445267023454 -1200.1201785563128 -1334.1155198243341 0 0 1
2563 171 13 -0.5 -1215.6459890708925 -1173.2879198370902 -1278.8633246915765 0 0 1
2553 171 3 -1.5 -1175.950887580578 -1181.252893331736 -1294.3420594108868 0 0 1
5521 369 1 0 -2863.4720104470634 -554.2233188054055 -1302.729681276739 0 0 0
5528 369 8 0 -2828.6981879903933 -512.2576590739703 -1286.4924348918012 0 0 0
5525 369 5 0 -2756.93179813251 -477.6998677755429 -1296.5703530955957 0 0 0
5523 369 3 -1.5 -2671.757565337549 -501.2737753128987 -1335.0433719031462 0 0 0
5532 369 12 0 -2673.5547969369213 -482.47721382927904 -1288.1186454241429 0 0 0
245 17 5 0 -1280.1008619695272 -479.2537970864995 -1289.1441060467002 0 0 0
248 17 8 0 -1285.7280445887416 -420.47419905880906 -1332.647145834232 0 0 0
246 17 6 -0.5 -956.5593580558875 -414.5570560491013 -1276.1369040287734 0 0 0
254 17 14 -1.5 -929.2374363896399 -379.23471998593465 -1280.4094317858685 0 0 0
964 65 4 0 -2298.7684498656217 -316.87741531538 -1288.0402096549744 0 0 0
2584 173 4 0 -1553.4145214079786 -345.96821474949513 -1336.3659863827484 0 0 1
923 62 8 0 -896.3687903578688 -332.9743986046259 -1298.4524697539744 0 0 0
961 65 1 0 -2836.3102251704895 -292.585104695585 -1310.902484809143 0 0 0
975 65 15 0 -2410.463678084939 -293.6811281075628 -1322.656419428801 0 0 0
966 65 6 -0.5 -2407.0831596857593 -244.00367736310142 -1331.568038161865 0 0 0
962 65 2 0 -2353.7885968056753 -299.12006110725105 -1288.9326931831615 0 0 0
974 65 14 -1.5 -2370.2211515176946 -222.65356249986186 -1341.9622680631808 0 0 0
2936 196 11 1 -2363.7930394913233 -205.84941779745802 -1331.6045488827367 0 0 0
2940 196 15 0 -2256.2272022261545 -218.79976389250555 -1286.852920814833 0 0 0
2934 196 9 0 -2307.9138144626036 -187.66612949740994 -1297.8352149227242 0 0 0
2931 196 6 -0.5 -2262.837659574789 -162.89776775997754 -1285.0056388907783 0 0 0
2939 196 14 -1.5 -2218.897097242795 -163.87646883568559 -1282.3797641523713 0 0 0
650 44 5 0 -45.351726587278684 -88.83755967996571 -1284.7531240370547 0 0 0
1061 71 11 1 -567.2495555385009 369.2374494849358 -1329.7864059193735 0 0 0
1723 115 13 -0.5 -612.8969530086633 390.4812687355159 -1334.539666903545 0 0 0
1713 115 3 -1.5 -587.9023575405874 410.6672494794848 -1305.8635460097269 0 0 0
1722 115 12 0 -541.4959942989907 409.32347091233004 -1287.9480950734046 0 0 0
1059 71 9 0 -509.30202156907717 397.93421495530674 -1321.4657619427535 0 0 0
1720 115 10 1 -487.25466109515463 439.6145946815244 -1293.1339708132027 0 0 0
1056 71 6 -0.5 -456.82685437877393 411.5972207260506 -1319.4184360590764 0 0 0
1064 71 14 -1.5 -425.67254863451285 441.4887838627838 -1331.2836740057107 0 0 0
4922 329 2 0 -1982.0157524662923 497.42447663484705 -1276.053865639556 0 0 0
4935 329 15 0 -1905.3445534565356 516.9204331737609 -1308.1814364191537 0 0 0
4926 329 6 -0.5 -1855.134560500234 490.59530294406983 -1278.8734757883947 0 0 0
4929 329 9 0 -1835.581397211469 487.4022675267285 -1328.814683431115 0 0 0
1411 95 1 0 -1465.2986101565486 510.58248683804584 -1277.9093388918257 0 0 0
1717 115 7 2 -434.4154726507285 469.72407438308005 -1302.8518900978302 0 0 0
1721 115 11 1 -392.85301668699867 501.69365832888354 -1317.1072644227063 0 0 0
1420 95 10 1 -1690.5091725958234 592.7401895242507 -1276.712120593989 0 0 0
1719 115 9 0 -337.5064663217409 534.9686049060372 -1326.5652032828182 0 0 0
1716 115 6 -0.5 -299.3682281816948 574.447029221254 -1334.4463279042923 0 0 0
1421 95 11 1 -1756.4896842998346 669.8748890761048 -1331.9091560547572 0 0 0
1417 95 7 2 -1726.686223956193 634.1441120993525 -1305.6626038563807 0 0 0
1724 115 14 -1.5 -287.3552853904468 615.8695890557534 -1346.3884405417734 0 0 0
4088 273 8 0 -987.2681428183337 898.7737972645464 -1276.7650109987917 0 0 0
4485 299 15 0 -1954.835386780307 1030.453193500781 -1334.5968596436353 0 0 0
4472 299 2 0 -1914.3854041929337 1001.0594113825996 -1294.7680560712333 0 0 0
4234 283 4 0 -1858.871200626745 1033.448517352649 -1323.0371331692363 0 0 0
4244 283 14 -1.5 -2037.313741069686 1058.3672761721555 -1349.130453496318 0 0 0
4236 283 6 -0.5 -2052.421298377355 1098.2235096753298 -1336.8738374849816 0 0 0
4479 299 9 0 -1999.236933112136 1079.940602013731 -1333.5301634721334 0 0 0
4476 299 6 -0.5 -1963.6126818545588 1087.6369795366577 -1294.43844610547 0 0 0
4232 283 2 0 -1908.3486798144186 1062.761538318061 -1314.81878985528 0 0 0
4484 299 14 -1.5 -1922.5148459264642 1101.016674331397 -1282.4594947422718 0 0 0
4361 291 11 1 -2095.9780241912354 1171.223301069477 -1311.5563886574591 0 0 0
4239 283 9 0 -2058.792424363605 1141.342867418939 -1304.0651834609425 0 0 0
4241 283 11 1 -2079.6219954432704 1199.310352341301 -1281.1297781525388 0 0 0
4245 283 15 0 -1994.6702256948238 1125.8360035372275 -1315.4271874850829 0 0 0
4357 291 7 2 -2123.9253614561358 1208.34566007757 -1283.6530640945261 0 0 0
2406 161 6 -0.5 -2287.730683920156 -1489.4241880923043 -1249.9049942936376 0 0 0
2414 161 14 -1.5 -2302.903531976057 -1491.084755134732 -1207.5944831965378 0 0 0
2415 161 15 0 -2276.6337921065506 -1425.6285603385468 -1222.7139278757538 0 0 0
1612 108 7 2 -1298.9403740781772 -605.6496391548648 -1202.9492241847347 0 0 0
243 17 3 -1.5 -1268.9168208554597 -554.1833857045838 -1214.4097242246066 0 0 0
1616 108 11 1 -1257.0897842638653 -586.1829904083882 -1231.0880645961247 0 0 0
1614 108 9 0 -1213.8550217235456 -549.6964004671132 -1260.63114682687 0 0 0
253 17 13 -0.5 -1265.2732687292892 -595.789485144083 -1217.1888414871219 0 0 0
1620 108 15 0 -1149.7475652412816 -543.1205621341984 -1246.6374050678646 0 0 0
252 17 12 0 -1233.5725290318803 -518.6494145214048 -1219.0411509561034 0 0 0
1611 108 6 -0.5 -1183.8267043857452 -504.6075713467556 -1264.565799307911 0 0 0
250 17 10 1 -1170.1901073263944 -500.4891525138801 -1228.7872505838634 0 0 0
1619 108 14 -1.5 -1143.9575150706892 -484.0334670801904 -1263.8318638407472 0 0 0
247 17 7 2 -1115.151806754595 -472.5922607124817 -1238.2989586778497 0 0 0
251 17 11 1 -1067.786034744128 -451.6011352743621 -1249.1445356262611 0 0 0
1607 108 2 0 -1099.94297669263 -509.0875977860995 -1200.3702287589097 0 0 0
1609 108 4 0 -1047.0186384290253 -492.7727721969794 -1207.09258647065 0 0 0
255 17 15 0 -942.8345617582452 -457.6164749872152 -1217.1682275036678 0 0 0
5530 369 10 1 -2655.065302836297 -444.1593938365417 -1238.6024090025762 0 0 0
249 17 9 0 -1003.1525425300921 -431.80232290367195 -1255.591319975602 0 0 0
920 62 5 0 -902.7163893799132 -382.539598604987 -1240.3751972584323 0 0 0
2927 196 2 0 -2208.476252761499 -225.20033095318044 -1259.2664090371593 0 0 0
2929 196 4 0 -2156.5133750909417 -255.838238622665 -1231.1873115060632 0 0 0
3121 209 1 0 -1312.9574506618824 -272.4117733737367 -1268.7202978487767 0 0 0
3128 209 8 0 -1294.3976372688765 -233.63650842981238 -1206.84052651025 0 0 0
5431 363 1 0 -527.6236533920649 -260.0326069190056 -1210.878699956829 0 0 0
5059 338 4 0 -836.60082468221 -211.54487845513844 -1252.6640946129114 0 0 0
658 44 13 -0.5 -165.2077454557759 -115.1385147958545 -1264.2722667459905 0 0 0
648 44 3 -1.5 -145.05139413566678 -86.45531778481023 -1238.5994057464086 0 0 0
657 44 12 0 -101.64432808936601 -86.84970163252821 -1212.07554873373 0 0 0
4924 329 4 0 -2033.3384505026288 466.5091000645014 -1266.718467223456 0 0 0
4934 329 14 -1.5 -1889.1895792775142 483.06028500099393 -1251.547609165496 0 0 0
1413 95 3 -1.5 -1656.5667861356649 511.2181067977751 -1203.0039963504807 0 0 0
1418 95 8 0 -1517.0859419696967 490.2396968511938 -1264.3713354448914 0 0 0
1422 95 12 0 -1660.3796464892669 551.8255546605626 -1232.35936965366 0 0 0
1415 95 5 0 -1575.537500343963 548.3894762418378 -1255.6179549694148 0 0 0
4663 311 13 -0.5 -1242.942222029613 764.2725719832093 -1253.8869290562398 0 0 0
4653 311 3 -1.5 -1234.0424352261718 806.0482497721981 -1254.2845891713832 0 0 0
4662 311 12 0 -1219.2411470774664 834.790986566943 -1219.1656600108058 0 0 0
4081 273 1 0 -939.0454041268201 852.8233194131067 -1244.6741979521573 0 0 0
4085 273 5 0 -1015.3179792406157 941.0566430235295 -1249.2971014216369 0 0 0
4474 299 4 0 -1876.9338710526167 996.4416882308018 -1273.5278089354022 0 0 0
4360 291 10 1 -2147.202080406094 1257.8280501797933 -1256.7470611649453 0 0 0
4237 283 7 2 -2096.0166023093248 1242.2988382402696 -1253.059745845264 0 0 0
4172 279 2 0 -467.83811773668697 1204.3673875839054 -1207.5843227207467 0 0 0
4174 279 4 0 -412.95024100602495 1231.9752399599893 -1211.6878914333256 0 0 0
4274 285 14 -1.5 -290.28050620379156 1252.5577249797143 -1225.2143814605572 0 0 0
4355 291 5 0 -2231.5871933806325 1314.5923595329239 -1227.6223559818282 0 0 0
4362 291 12 0 -2158.488120246591 1315.0715777187888 -1234.1140930010733 0 0 0
4240 283 10 1 -2116.092352326234 1295.58387128606 -1230.4340408948144 0 0 0
5374 359 4 0 -225.7343533816725 1336.6286301898965 -1244.01980806713 0 0 0
5372 359 2 0 -280.45673084510355 1333.9137245547502 -1216.4252954339215 0 0 0
4353 291 3 -1.5 -2159.08016297856 1362.0273623725775 -1238.4500353164299 0 0 0
4363 291 13 -0.5 -2153.3998379194513 1390.3835277633038 -1206.1794246604616 0 0 0
3624 242 9 0 -207.24813710146577 -1449.5650234092168 -1182.3192878146424 0 0 0
3630 242 15 0 -135.89514373909898 -1467.3141793894392 -1152.486716223167 0 0 0
2402 161 2 0 -2289.5620216754314 -1382.1957537744604 -1199.737817091633 0 0 0
3626 242 11 1 -237.1764115319408 -1390.7523660892143 -1190.286904139932 0 0 0
2404 161 4 0 -2313.1774697529363 -1348.0545137987056 -1167.6247070178588 0 0 0
3622 242 7 2 -264.31049909372496 -1343.7344632915901 -1185.5886822160037 0 0 0
3625 242 10 1 -297.6836498749723 -1293.2237127344986 -1171.5023655070772 0 0 0
3623 242 8 0 -516.0347339030876 -1274.5735414715 -1151.4432524054805 0 0 0
3620 242 5 0 -449.9471745836194 -1266.347304959972 -1157.6939162547612 0 0 0
3627 242 12 0 -329.8665967547097 -1244.7847034701472 -1141.7008402851127 0 0 0
2663 178 8 0 -301.9691588396499 -826.1328627986138 -1173.074426513738 0 0 0
2656 178 1 0 -342.2892813532356 -832.7784800558521 -1161.9783516409311 0 0 0
1318 88 13 -0.5 -149.95021298045128 -865.508959404048 -1127.150149845363 0 0 0
2662 178 7 2 -81.90038005089863 -803.3637929509613 -1156.0482515108113 0 0 0
2666 178 11 1 -41.66035918973341 -786.9260890581954 -1188.599371651413 0 0 0
1618 108 13 -0.5 -1442.5799528469406 -724.1817348870638 -1154.2433530706041 0 0 0
1608 108 3 -1.5 -1443.3885117209636 -682.6552489664857 -1164.92330238634 0 0 0
1617 108 12 0 -1408.8391473966071 -644.0507880625117 -1164.186222564579 0 0 0
1615 108 10 1 -1353.3607547143554 -622.4823227857306 -1178.5718322395164 0 0 0
928 62 13 -0.5 -972.1456378567447 -452.05217249629817 -1134.6887936026428 0 0 0
242 17 2 0 -851.4434446855106 -483.6112612743571 -1183.4855743270534 0 0 0
244 17 4 0 -806.2721656517756 -504.7585031480578 -1144.0752475097358 0 0 0
5527 369 7 2 -2649.9230525907014 -415.2140014976288 -1184.1241547691009 0 0 0
5531 369 11 1 -2643.2784010887844 -393.34956935243787 -1135.0226786293808 0 0 0
918 62 3 -1.5 -947.4946281751463 -440.0537395284729 -1168.4937261312493 0 0 0
927 62 12 0 -898.6905242550207 -432.50801301551877 -1172.3824919170233 0 0 0
925 62 10 1 -838.7016216193688 -426.58417556473296 -1149.6832532503813 0 0 0
922 62 7 2 -780.743739493531 -413.98005247144795 -1131.2282068364402 0 0 0
3388 226 13 -0.5 -795.4818269062632 -377.9985162646891 -1146.1659697566624 0 0 0
3125 209 5 0 -1313.3586153921976 -201.3651133394892 -1141.8656892423373 0 0 0
5057 338 2 0 -836.4413413480162 -213.13543956843841 -1188.5827577474806 0 0 0
5438 363 8 0 -525.3131552112998 -220.27063915936645 -1173.6205671944808 0 0 0
655 44 10 1 -72.3095826994864 -96.7465290937359 -1160.2337477650217 0 0 0
1715 115 5 0 -554.3044422331069 386.37295041813485 -1174.771790291079 0 0 0
3021 202 6 -0.5 -449.9433188563031 419.3062096769054 -1141.3922795877404 0 0 0
3029 202 14 -1.5 -420.84967914421685 408.031015506683 -1172.8554003019037 0 0 0
1423 95 13 -0.5 -1642.850539078288 506.84180761131444 -1162.7911226281478 0 0 0
5165 345 5 0 -1994.7106438532217 663.8948781873356 -1159.048883390763 0 0 0
5168 345 8 0 -1928.4321711044395 629.6991889826517 -1161.8375660154497 0 0 0
5161 345 1 0 -1886.2145173730507 656.7185919929353 -1134.8743142644053 0 0 0
5173 345 13 -0.5 -2157.6174407595427 706.2145614560914 -1157.4873893111205 0 0 0
5163 345 3 -1.5 -2114.950857347197 706.7882320151219 -1158.2047981853198 0 0 0
5172 345 12 0 -2082.352825079194 724.5396603688464 -1127.409599436306 0 0 0
4651 311 1 0 -1418.7435095252356 718.211852956577 -1131.3693660513989 0 0 0
4655 311 5 0 -1303.4864222064818 821.1862346005686 -1148.7324636166518 0 0 0
4660 311 10 1 -1177.7941353352803 878.7295744468566 -1194.4073358838953 0 0 0
4093 273 13 -0.5 -1101.9102658336521 899.2924314788577 -1148.3001836957735 0 0 0
4657 311 7 2 -1129.9232766550012 911.4481780594588 -1172.8265046546933 0 0 0
4661 311 11 1 -1092.951067367457 947.1691580658734 -1156.7432316595134 0 0 0
4083 273 3 -1.5 -1059.319863989047 900.9163418826693 -1154.8999159433438 0 0 0
4092 273 12 0 -1030.3736798910377 941.363097834519 -1158.81686474181 0 0 0
4090 273 10 1 -994.7343447348946 985.7358867569098 -1131.687321537683 0 0 0
4665 311 15 0 -982.8152741675625 1032.8875185454351 -1157.724124207202 0 0 0
4659 311 9 0 -1043.4343041342847 987.4007965460061 -1133.8906210023922 0 0 0
5626 376 1 0 -1127.8353500146823 1081.9122735720177 -1152.4981808707876 0 0 0
5633 376 8 0 -1070.4286817250058 1094.4390490784313 -1146.06460405262 0 0 0
4652 311 2 0 -921.2625749280222 1099.9448724143822 -1133.2851614129956 0 0 0
4177 279 7 2 -703.5981457759868 1183.412567045602 -1146.574577434749 0 0 0
4181 279 11 1 -651.0708251660637 1193.5620430035972 -1159.719503452838 0 0 0
4901 327 11 1 -602.3476944716529 1177.1038753922974 -1138.3881907503262 0 0 0
4897 327 7 2 -653.5394498670444 1164.913412253294 -1127.8692003367569 0 0 0
4185 279 15 0 -532.0270277244001 1199.5902965762093 -1196.9742769604738 0 0 0
5373 359 3 -1.5 -671.4681425932686 1223.4356359843448 -1130.783834219202 0 0 0
5382 359 12 0 -627.4344375911802 1248.9810046472953 -1134.7755743958423 0 0 0
4899 327 9 0 -545.6617533149789 1205.7762855619185 -1154.3541837361481 0 0 0
4179 279 9 0 -590.2635941491047 1217.3076285870109 -1171.5876669429074 0 0 0
4176 279 6 -0.5 -553.4998463156418 1256.6205834154866 -1180.8722690312338 0 0 0
5380 359 10 1 -563.4913720797405 1251.3598209127385 -1152.3827120268636 0 0 0
4184 279 14 -1.5 -512.6901947289914 1266.471702775309 -1193.3364054293897 0 0 0
4904 327 14 -1.5 -464.05405950116557 1256.7082320599916 -1171.2303823106054 0 0 0
4896 327 6 -0.5 -505.73019199089026 1241.9429938804699 -1171.377788989088 0 0 0
5377 359 7 2 -502.4258316718913 1258.291663273011 -1156.3351895638027 0 0 0
4267 285 7 2 -468.3864019942632 1267.3085839141575 -1126.0707117504978 0 0 0
5381 359 11 1 -449.30171572585283 1258.4248184393039 -1165.7483021528217 0 0 0
5379 359 9 0 -385.5536566797734 1244.3397300032825 -1177.360083455857 0 0 0
4271 285 11 1 -416.0405055505173 1272.1921323847318 -1136.917823931034 0 0 0
5376 359 6 -0.5 -340.32182931699356 1216.466432184288 -1176.4619260015015 0 0 0
4266 285 6 -0.5 -309.5589076256434 1252.2887473937133 -1185.0448500044877 0 0 0
4269 285 9 0 -350.6646488698653 1264.9875134386727 -1153.8230475483394 0 0 0
5384 359 14 -1.5 -297.90428485937707 1211.2600377107121 -1163.5302743214618 0 0 0
4351 291 1 0 -2330.428617061487 1315.9025990794883 -1130.3318064887367 0 0 0
4358 291 8 0 -2311.344456217015 1291.0621577619456 -1184.8484241562053 0 0 0
4242 283 12 0 -2130.0669011228783 1347.2658649560663 -1194.175560911063 0 0 0
4268 285 8 0 -717.4486732901214 1327.397245151677 -1158.4758853946587 0 0 0
4265 285 5 0 -654.0625555396927 1300.8583077244768 -1138.8408634146515 0 0 0
4905 327 15 0 -544.6963899216828 1298.4290246538146 -1151.0213699332712 0 0 0
4892 327 2 0 -527.9117773818608 1340.8477142067566 -1141.0025322350643 0 0 0
5385 359 15 0 -330.16886314589823 1294.6224261105922 -1195.0052407447083 0 0 0
4233 283 3 -1.5 -2120.40638066427 1397.1829281340033 -1183.727383360023 0 0 0
4261 285 1 0 -788.8690560564273 1353.593589737468 -1164.180267741008 0 0 0
4243 283 13 -0.5 -2144.7791531820662 1431.7834175440687 -1177.0695178888727 0 0 0
3621 242 6 -0.5 -194.50875413859802 1495.6765483262393 -1179.4755283529378 0 -1 0
3629 242 14 -1.5 -171.53876366232328 1460.4734699951837 -1165.19536895185 0 -1 0
3619 242 4 0 -0.5568602608990343 1434.2587181428137 -1166.0171153471874 0 -1 0
3617 242 2 0 -40.909459989984875 1485.1253325362202 -1152.6099177540164 0 -1 0
3856 258 1 0 -307.7586650523616 -1341.1434274573312 -1070.7705405771464 0 0 0
3616 242 1 0 -571.4707338840798 -1268.3593323533496 -1102.4566187377268 0 0 0
3618 242 3 -1.5 -332.50923256180624 -1201.5614818159036 -1113.776652433872 0 0 0
3628 242 13 -0.5 -352.7875197810729 -1164.686055566098 -1123.6394403207532 0 0 0
2660 178 5 0 -254.91134055114867 -835.4943446210931 -1120.426908743891 0 0 0
1308 88 3 -1.5 -155.17841531721896 -894.4304781084558 -1095.5770276020107 0 0 0
2667 178 12 0 -169.16853600480118 -852.5574549213535 -1080.2090416290287 0 0 0
2665 178 10 1 -126.97455795553476 -829.4274592660503 -1122.9777567352685 0 0 0
1610 108 5 0 -1447.3640300833501 -587.2920994581078 -1095.7966461487276 0 0 0
1606 108 1 0 -1505.491809590565 -453.08530395811454 -1082.9101133233535 0 0 0
1613 108 8 0 -1482.674665258885 -512.0523668702075 -1051.358322343494 0 0 0
5529 369 9 0 -2630.2009864682204 -382.6925931113091 -1071.3588289401482 0 0 0
926 62 11 1 -732.7837440074593 -393.84545168513586 -1117.1646300250577 0 0 0
919 62 4 0 -468.7356372507698 -384.3772664311277 -1090.601955081008 0 0 0
3378 226 3 -1.5 -774.6811195045236 -374.80181500974624 -1108.528396868416 0 0 0
924 62 9 0 -679.9907819620004 -357.076263511656 -1112.3654732412508 0 0 0
3387 226 12 0 -734.920779335147 -348.6782272357035 -1089.2918508050343 0 0 0
3385 226 10 1 -675.5805384026716 -344.5903270832089 -1064.6417522877011 0 0 0
921 62 6 -0.5 -653.2801733759302 -314.5538472637141 -1094.1005989635853 0 0 0
930 62 15 0 -615.4291932414245 -364.44538394812355 -1092.538738279509 0 0 0
3382 226 7 2 -615.8923617460893 -334.59221259764536 -1052.9971666959386 0 0 0
917 62 2 0 -518.1350069644375 -364.10422161793423 -1103.0999710107826 0 0 0
3380 226 5 0 -781.3420933647183 -250.16366623381307 -1096.047163699371 0 0 0
929 62 14 -1.5 -622.5936593908035 -296.8580038612558 -1068.0697758059464 0 0 0
3122 209 2 0 -944.0666861360904 -191.71132873807915 -1063.9209869552096 0 0 0
3124 209 4 0 -901.3192961368546 -188.20611376322668 -1101.0151308233706 0 0 0
3383 226 8 0 -850.6630058713437 -212.22326162763292 -1088.518744123858 0 0 0
5070 338 15 0 -826.6294071231621 -181.1455822337409 -1124.244352882252 0 0 0
3376 226 1 0 -893.8132746654264 -201.143808880072 -1064.0396486181712 0 0 0
5064 338 9 0 -875.6733284721172 -162.66580626457042 -1074.135137989182 0 0 0
5061 338 6 -0.5 -823.9327764954601 -167.02101837019495 -1071.3816022891976 0 0 0
5069 338 14 -1.5 -783.631916258974 -151.96757977731778 -1059.1820106675627 0 0 0
5435 363 5 0 -524.2820888144624 -218.3720219911035 -1094.547618442966 0 0 0
5062 338 7 2 -984.6733076533707 -119.31769814867175 -1062.9727295581138 0 0 0
5066 338 11 1 -932.9084115650141 -133.40524411146748 -1072.1742708101117 0 0 0
656 44 11 1 -23.34128051910528 -135.8784846609818 -1063.6967775932837 0 0 0
652 44 7 2 -49.63115222712784 -119.2593080523215 -1107.6986212095035 0 0 0
5060 338 5 0 -1103.6539905361287 22.65801510062277 -1070.6037516688502 0 0 0
5063 338 8 0 -1105.5979515258555 94.30367094866429 -1111.5685242365234 0 0 0
5056 338 1 0 -1095.2600883455157 151.2222704402753 -1088.7646232969732 0 0 0
1003 67 13 -0.5 -1039.8911343336172 310.04197117170673 -1106.4602893660972 0 0 0
993 67 3 -1.5 -1041.4930483263893 341.5500785557846 -1077.2250691519257 0 0 0
3023 202 8 0 -837.2776024446619 304.3957273483634 -1105.2520491379883 0 0 0
3016 202 1 0 -888.6726812233577 317.7426895270168 -1082.880394892228 0 0 0
3020 202 5 0 -760.251761389468 321.29078022543877 -1084.3353441107631 0 0 0
1294 87 4 0 -724.018243589293 363.76030300397014 -1051.6978831187819 0 0 0
1711 115 1 0 -588.9686729394058 362.61960331788293 -1086.063843232104 0 0 0
1718 115 8 0 -574.6461969523064 379.8763160283661 -1116.4114835417267 0 0 0
3022 202 7 2 -599.612170736605 408.73220209376865 -1061.4802557921696 0 0 0
2399 160 14 -1.5 -563.011402524683 393.9958946041928 -1065.0849918790354 0 0 0
3026 202 11 1 -554.6201197146925 416.01087695843086 -1090.1595731162847 0 0 0
3024 202 9 0 -496.02442202295424 407.3611277983729 -1118.7532813780692 0 0 0
3030 202 15 0 -430.2314512859082 386.43956466865586 -1082.5828182025107 0 0 0
3061 205 1 0 -2992.3473635467153 507.1645168399087 -1065.5798906601108 0 0 0
3523 235 13 -0.5 -1464.9680481616638 590.8875746595369 -1086.5274832822101 0 0 0
3513 235 3 -1.5 -1444.0688514015642 621.3535131366449 -1065.2008074103544 0 0 0
4681 313 1 0 -2838.7543775587533 688.5676805723684 -1098.4251970653838 0 0 0
4688 313 8 0 -2823.6749242817536 755.4189393138602 -1078.4647211033912 0 0 0
5170 345 10 1 -2070.578891316812 754.7910014019704 -1074.264089661418 0 0 0
4658 311 8 0 -1368.525958359839 769.3927335804987 -1120.2602337740896 0 0 0
4066 272 1 0 -2709.725344553817 905.7053680845785 -1095.7658448225043 0 0 0
4073 272 8 0 -2681.2264933339184 945.7034536380079 -1110.1287403639876 0 0 0
4070 272 5 0 -2621.0054168176425 956.9283335873109 -1075.2112029353714 0 0 0
4656 311 6 -0.5 -1014.7611690452017 1025.6644253840398 -1103.892238634755 0 0 0