LAMMPS data file via write_data, version 27 Jun 2024, timestep = 9600000, units = real

5730 atoms
15 atom types
5482 bonds
16 bond types
5730 angles
15 angle types

-3000 3000 xlo xhi
-1500 1500 ylo yhi
-1500 1500 zlo zhi

Masses

1 241.19
2 73.54000000000001
3 330.71
4 235.16
5 68.06999999999999
6 353.53
7 223.38
8 41.1
9 216.91
10 155.15
11 147.32
12 264.65
13 300.8
14 326.05
15 85.20999999999999

Pair Coeffs # lj/cut/coul/debye/gpu

1 0.71637 40.7505
2 0.665709 48.1397
3 1.15033 39.2216
4 0.726774 43.8077
5 0.514724 53.3428
6 1.17127 41.7847
7 1.2256 38.5601
8 0.675431 54.5696
9 1.26117 43.78
10 0.939007 42.5209
11 0.960667 41.1825
12 1.30988 48.0761
13 1.36645 37.7114
14 1.35529 39.2179
15 0.592003 47.2602

Bond Coeffs # harmonic

1 0.003 59.228
2 0.008 56.48
3 0.001 69.324
4 3.207 42.88
5 0.11 49.807
6 0.002 74.968
7 0.001 91.635
8 0.145 54.383
9 2.709 44.406
10 1.71 61.679
11 1.625 54.051
12 0.207 66.185
13 0.002 64.76
14 0.079 63.886
15 0.2 40
16 0.2 40

Angle Coeffs # harmonic

1 11.427 158.273
2 50.464 132.042
3 8.207 156.514
4 92.705 149.394
5 100 174.44
6 3.15 145.53
7 48.938 159.031
8 17.401 129.945
9 15.735 56.441
10 60 172.254
11 60.285 168.396
12 11.83 99.091
13 150 107.995
14 27.746 149.925
15 7.483 160.775

Atoms # full

2407 161 7 2 -2215.7687425055406 -1482.4992401066202 -1426.1739964757721 0 0 0
1811 121 11 1 -2418.1815501164515 -634.7723437261685 -1435.7894213146858 0 0 0
1809 121 9 0 -2358.575696614141 -656.164913761785 -1453.8498128379813 0 0 0
1815 121 15 0 -2323.22480187027 -633.6697950306973 -1491.7869832178005 0 0 0
1814 121 14 -1.5 -2266.6223868939815 -643.8437580188884 -1462.2769578145844 0 0 0
1806 121 6 -0.5 -2307.2697565961494 -660.9162955380458 -1465.119858911306 0 0 0
2594 173 14 -1.5 -1630.3878052896202 -480.0284902395086 -1487.613676651015 0 0 1
2586 173 6 -0.5 -1649.797913948267 -441.60831207565093 -1498.395026713631 0 0 1
2595 173 15 0 -1590.0922885304144 -414.490326459263 -1495.5259933248456 0 0 1
2582 173 2 0 -1529.4540758901148 -417.7229311800219 -1436.690324522857 0 0 1
961 65 1 0 -2821.377977534512 -273.057101522163 -1477.7622799429942 0 0 0
2926 196 1 0 -2681.210166996106 -172.4702970801675 -1496.4405595062904 0 0 0
2933 196 8 0 -2630.0654798984237 -175.6909185078031 -1461.5486039292107 0 0 0
1074 72 9 0 -415.16819581814354 -223.92627451494104 -1477.2404762678366 0 0 1
1071 72 6 -0.5 -379.69627360442314 -189.27592485657803 -1457.3260119089182 0 0 1
1079 72 14 -1.5 -345.9170924055095 -175.04169610357164 -1432.6952301091605 0 0 1
1080 72 15 0 -358.25920525186115 -190.47233187396168 -1496.850209031121 0 0 1
650 44 5 0 -297.66326099785175 21.688305267433503 -1484.4881284810594 0 0 0
657 44 12 0 -271.6253770224765 84.96272835847218 -1458.8400434342452 0 0 0
1051 71 1 0 -619.758668430732 345.9264014323893 -1468.4600855717188 0 0 0
4932 329 12 0 -1859.3127265435796 513.4676907203354 -1454.7830108031899 0 0 0
1411 95 1 0 -1843.8734705182717 561.109244414197 -1469.3629325474901 0 0 0
1418 95 8 0 -1764.6323255673676 563.4758190371062 -1445.4388120293775 0 0 0
1415 95 5 0 -1700.9986993613009 547.6231415283545 -1437.5317570554914 0 0 0
4480 299 10 1 -2106.498116301713 995.5175706306441 -1470.5412545499626 0 0 0
4477 299 7 2 -2061.2413746268107 995.8185950699707 -1428.776446424497 0 0 0
4474 299 4 0 -1809.7951929472322 1064.5413436740093 -1447.910933557589 0 0 0
2413 161 13 -0.5 -2363.1388642566244 1418.7536811896748 -1470.402465011645 0 -1 0
2410 161 10 1 -2256.6098556607576 1487.4206396307563 -1460.724574917303 0 -1 0
2412 161 12 0 -2292.473059792711 1457.0038516537847 -1498.2564244167368 0 -1 0
2411 161 11 1 -2176.2609282166663 -1458.512555279534 -1398.6890096873217 0 0 0
2409 161 9 0 -2140.39039686176 -1428.3033377026964 -1350.8326644950084 0 0 0
3774 252 9 0 -1774.1295330976025 -1195.3794077533178 -1365.180276172486 0 0 0
3771 252 6 -0.5 -1731.2067970969342 -1189.5499714796226 -1395.249688070542 0 0 0
3779 252 14 -1.5 -1706.3619092998815 -1163.253067574608 -1420.4128966115857 0 0 0
1807 121 7 2 -2458.18569278108 -602.2188141044949 -1421.5408242938763 0 0 0
1813 121 13 -0.5 -2632.766525621633 -558.5307007492994 -1359.027930938804 0 0 0
1803 121 3 -1.5 -2608.0822408496665 -533.0159784287318 -1383.3510129635476 0 0 0
1812 121 12 0 -2560.3506447774375 -537.285342787398 -1390.1925986793262 0 0 0
1810 121 10 1 -2507.6835116307434 -566.5374928694823 -1411.3113357254067 0 0 0
963 65 3 -1.5 -2736.803992440953 -427.24260289558276 -1381.0857641422895 0 0 0
972 65 12 0 -2711.8988440292014 -384.8716069561476 -1376.377219282856 0 0 0
973 65 13 -0.5 -2772.813290225044 -441.29920454010755 -1362.4777973535395 0 0 0
2584 173 4 0 -1514.4297079166981 -425.4797963346922 -1383.1837925984548 0 0 1
965 65 5 0 -2779.193580923439 -319.5281448413226 -1378.6747746314195 0 0 0
970 65 10 1 -2654.3258089524315 -353.2810026086895 -1366.2276783335813 0 0 0
2938 196 13 -0.5 -2569.043863120374 -324.78993190528496 -1366.427861971519 0 0 0
967 65 7 2 -2605.5888958144988 -318.2375183660371 -1350.1576604576553 0 0 0
2928 196 3 -1.5 -2529.814994882794 -311.7050924692689 -1354.4434130449727 0 0 0
968 65 8 0 -2823.459851274959 -287.86526752071546 -1415.0175147002203 0 0 0
2929 196 4 0 -2259.004860257416 -228.29943968005378 -1362.232325122583 0 0 0
2930 196 5 0 -2568.0126767787037 -210.80222147637247 -1413.465551206458 0 0 0
655 44 10 1 -239.08704631567562 72.42958044975678 -1403.7763759546478 0 0 0
1711 115 1 0 -374.3576641967603 164.08539797506913 -1391.2796543329066 0 0 0
1718 115 8 0 -359.6401913049595 209.05987559178868 -1366.0008489982408 0 0 0
1058 71 8 0 -609.022256742546 358.721820788396 -1416.409752737473 0 0 0
1423 95 13 -0.5 -1611.7834812419828 408.51941666865866 -1389.059696931101 0 0 0
1413 95 3 -1.5 -1622.6689607614574 448.70923707994564 -1399.1826765903143 0 0 0
1055 71 5 0 -614.198065797772 428.11864792582634 -1405.5916411692215 0 0 0
1422 95 12 0 -1622.9151984533717 491.9211013742853 -1372.1918745327719 0 0 0
1063 71 13 -0.5 -707.364851355759 481.0757739182292 -1390.316625023376 0 0 0
1053 71 3 -1.5 -673.0648554144257 506.7918775666683 -1389.7111362087085 0 0 0
1062 71 12 0 -626.4998734356292 498.55358520960516 -1374.061146404175 0 0 0
4927 329 7 2 -1874.0190813240954 596.8330196354874 -1364.979281565584 0 0 0
4930 329 10 1 -1861.4515576013773 558.1623461264513 -1411.2563251226516 0 0 0
4654 311 4 0 -990.3211952676618 865.1478880195018 -1366.9533300220774 0 0 0
4652 311 2 0 -1007.8648105082543 928.820843727123 -1360.1572574917718 0 0 0
4481 299 11 1 -2022.0111759808822 989.9337269069237 -1391.7610419331686 0 0 0
4479 299 9 0 -1967.4739854085833 995.0700392573312 -1354.712346780637 0 0 0
4485 299 15 0 -1912.1916683522538 1016.8052072933297 -1374.556725435734 0 0 0
4472 299 2 0 -1872.498031022934 1040.8262909956613 -1422.792839103472 0 0 0
4081 273 1 0 -1270.345761322003 1062.7907135190972 -1407.0702463058883 0 0 0
4088 273 8 0 -1238.8876686303597 1076.3211150703348 -1365.0898240214794 0 0 0
4261 285 1 0 -569.456583030953 1132.0856781234822 -1411.1929761541185 0 0 0
2415 161 15 0 -2163.087165255697 -1414.2939118419833 -1302.2569032503557 0 0 0
2406 161 6 -0.5 -2125.5578677544167 -1402.7196171739356 -1305.8869176644944 0 0 0
3618 242 3 -1.5 -345.5471722468141 -1353.7066159665108 -1279.2841324628273 0 0 0
3628 242 13 -0.5 -363.863768026256 -1392.6959893439707 -1279.7538276762316 0 0 0
3620 242 5 0 -321.769949674065 -1245.9659841757693 -1278.3224003562277 0 0 0
3776 252 11 1 -1818.9261495151804 -1196.7177337998517 -1315.302058637552 0 0 0
3780 252 15 0 -1700.8073725364416 -1170.3021163187698 -1347.1392808591654 0 0 0
3767 252 2 0 -1615.3791168991606 -1174.1226970530138 -1325.246998034713 0 0 0
3769 252 4 0 -1559.5925515177562 -1173.3319117671801 -1302.3358681723525 0 0 0
3616 242 1 0 -294.47314831680615 -1120.8565710915707 -1303.6658391397102 0 0 0
1805 121 5 0 -2533.4470716044907 -475.53872862113343 -1349.3642777734722 0 0 0
1808 121 8 0 -2554.3364415578194 -445.5903653915788 -1282.8748629883867 0 0 0
241 17 1 0 -1222.4059806932903 -380.9060169834699 -1304.875943524909 0 0 0
971 65 11 1 -2561.1196017261004 -294.20037951561943 -1331.0312780365648 0 0 0
2937 196 12 0 -2512.254535395621 -265.9265940250008 -1349.8079397384727 0 0 0
969 65 9 0 -2505.571547935354 -275.99409249931904 -1300.3780936517276 0 0 0
2935 196 10 1 -2456.1340342619433 -233.07608005273445 -1340.846857826245 0 0 0
975 65 15 0 -2437.7353971630737 -288.2789571287806 -1315.1007645712018 0 0 0
966 65 6 -0.5 -2462.6695029231105 -246.20861560904982 -1279.8639126838727 0 0 0
962 65 2 0 -2362.0895489977333 -293.74978712318017 -1335.89454158387 0 0 0
964 65 4 0 -2292.758842037879 -289.1243624109636 -1345.24852174682 0 0 0
2932 196 7 2 -2407.0899503453747 -204.67337201670378 -1315.998127947063 0 0 0
974 65 14 -1.5 -2427.560433681149 -219.6072027584275 -1285.9714948817757 0 0 0
2936 196 11 1 -2363.278723768067 -183.33986325332862 -1290.661150721735 0 0 0
2940 196 15 0 -2256.863367838066 -162.17936263265156 -1296.570230537859 0 0 0
2927 196 2 0 -2251.287831969583 -177.64803484154478 -1322.701560624954 0 0 0
2939 196 14 -1.5 -2235.0103725881536 -98.19958454218562 -1285.0376602613326 0 0 0
5059 338 4 0 -616.0306208722349 -84.05328732826753 -1307.1514134417332 0 0 0
652 44 7 2 -218.2904972297297 51.22868330869084 -1348.6752203550811 0 0 0
656 44 11 1 -194.46466831472475 32.0645498008636 -1304.327593362119 0 0 0
1715 115 5 0 -361.8095891335324 225.5608606812578 -1302.8566321471094 0 0 0
1060 71 10 1 -567.4322218887876 519.0116180820614 -1343.7883529701373 0 0 0
1057 71 7 2 -513.1847914330131 524.9158266861198 -1316.0479076236215 0 0 0
1420 95 10 1 -1598.3590513231761 531.7194425294283 -1330.183212188973 0 0 0
1417 95 7 2 -1562.9055708708088 563.0018791026873 -1289.946214471103 0 0 0
1061 71 11 1 -465.7070898497849 525.7967521669091 -1289.5628846183108 0 0 0
4931 329 11 1 -1880.4486788812496 638.0944865642236 -1331.0352692754602 0 0 0
4929 329 9 0 -1885.4626568162905 696.3942063251822 -1299.9114503232595 0 0 0
4926 329 6 -0.5 -1889.1978947104183 747.0524388303252 -1293.49535763791 0 0 0
4935 329 15 0 -1932.0904102128952 747.658999916176 -1322.4761029321176 0 0 0
4922 329 2 0 -1971.6555178517601 778.2374181152989 -1338.8846084003712 0 0 0
4924 329 4 0 -2024.288003604471 778.6710275235264 -1345.5339811460776 0 0 0
4934 329 14 -1.5 -1871.2718491796809 784.6600999740066 -1277.7369701954517 0 0 0
4693 313 13 -0.5 -2831.7778255516396 939.220790050673 -1317.566388695128 0 0 0
4683 313 3 -1.5 -2833.4946684895876 916.9989624559252 -1281.0787050452884 0 0 0
4484 299 14 -1.5 -1889.527056173273 1013.8074409603447 -1303.4482661669963 0 0 0
4476 299 6 -0.5 -1925.667415915825 1017.0543756070165 -1329.0729894058845 0 0 0
4658 311 8 0 -1379.4198762717087 1036.4377021290773 -1331.9918283097957 0 0 0
4085 273 5 0 -1173.4769832606335 1045.9218829387717 -1338.50207948872 0 0 0
4092 273 12 0 -1100.8487802425147 986.1874962503571 -1288.6641319718774 0 0 0
4659 311 9 0 -1093.7008894457906 1032.3309661868648 -1296.299598374122 0 0 0
4665 311 15 0 -1043.3480995847037 1010.6203261098591 -1314.5630254889998 0 0 0
5638 376 13 -0.5 -1028.3104387102228 1039.5107328421836 -1277.4866578761525 0 0 0
4651 311 1 0 -1393.660424224806 1079.0823253265767 -1340.9648525930675 0 0 0
4656 311 6 -0.5 -1046.6848580751669 1061.3947431241663 -1295.7869628694718 0 0 0
5628 376 3 -1.5 -996.4789248061854 1062.1892963350824 -1295.0782556747656 0 0 0
5637 376 12 0 -970.2045460626291 1100.5055185094823 -1279.7375299826713 0 0 0
4234 283 4 0 -1895.652080972477 1191.890418024505 -1282.8319023293031 0 0 0
4268 285 8 0 -616.3260218918263 1148.3798891231386 -1342.8654495334717 0 0 0
4175 279 5 0 -783.5241894189967 1223.4037081957065 -1293.394864922887 0 0 0
4231 283 1 0 -2290.362124165112 1294.17287110958 -1342.8813999423444 0 0 0
4238 283 8 0 -2240.286052002617 1300.9568409456715 -1314.2157947176454 0 0 0
4178 279 8 0 -779.4422663857694 1302.0771483649166 -1280.5129007778153 0 0 0
2414 161 14 -1.5 -2129.1717402955032 -1394.6985833188103 -1262.2237900140067 0 0 0
2402 161 2 0 -2134.7742518336127 -1361.0002728084141 -1227.1641660020964 0 0 0
3627 242 12 0 -309.5194393003729 -1333.0131573623917 -1250.1210729691086 0 0 0
3625 242 10 1 -258.21226241132337 -1334.780413591081 -1214.4264353907092 0 0 0
3775 252 10 1 -1888.9620962925762 -1177.0798207509863 -1226.2092405876099 0 0 0
3772 252 7 2 -1851.788385405579 -1192.5989322745563 -1272.507374756522 0 0 0
3623 242 8 0 -301.83447199588693 -1159.3061303024476 -1267.1824910551445 0 0 0
2670 178 15 0 -12.563403875246877 -783.7287707238429 -1213.4825933162397 0 0 0
2657 178 2 0 -16.20799484249197 -711.2214658679482 -1256.1605025609833 0 0 0
916 62 1 0 -926.2329290208271 -608.6945063465467 -1239.1212660711908 0 0 0
2659 178 4 0 -19.529583694243673 -657.1498737476411 -1273.396908185103 0 0 0
923 62 8 0 -936.0064597586287 -576.3036934049298 -1220.14101832963 0 0 0
245 17 5 0 -1301.4036677413374 -451.78145131973696 -1216.109166251046 0 0 0
1801 121 1 0 -2590.7967021628956 -421.3264523813037 -1240.6844379669833 0 0 0
248 17 8 0 -1251.6684826486287 -403.5197892293188 -1266.5253012131673 0 0 0
2934 196 9 0 -2304.896541568621 -159.44532713835517 -1269.2092569157219 0 0 0
2931 196 6 -0.5 -2260.058383354779 -130.56612736262827 -1267.2189009806839 0 0 0
3128 209 8 0 -1137.1821691720463 -13.436947821681517 -1213.374002169741 0 0 0
3121 209 1 0 -1170.2769551926888 -8.232696333148395 -1257.6872528541112 0 0 0
5057 338 2 0 -620.5818889517483 -52.40707770785206 -1253.435264601213 0 0 0
660 44 15 0 -143.6289508524115 -50.44870119354919 -1214.9708033020154 0 0 0
654 44 9 0 -166.30614418546628 24.547000825241966 -1245.383290986147 0 0 0
651 44 6 -0.5 -124.15430815130334 25.74914447148997 -1207.9997976878205 0 0 0
1713 115 3 -1.5 -417.9905216034744 232.61675516995484 -1218.1517223763856 0 0 0
1722 115 12 0 -381.9375300424971 265.3783609757182 -1224.1720190572232 0 0 0
1720 115 10 1 -337.3812428454105 308.9519083541821 -1206.067611435102 0 0 0
1052 71 2 0 -323.5802532009506 422.52043724116794 -1213.130150546804 0 0 0
1059 71 9 0 -418.53211334996035 513.6646800418254 -1246.678865937545 0 0 0
1056 71 6 -0.5 -400.68341358131323 490.5176795244182 -1201.4456813750653 0 0 0
1065 71 15 0 -369.1483474555441 469.99626613024145 -1241.7214105982423 0 0 0
1421 95 11 1 -1525.5590799767792 585.6952089606064 -1258.1095300102866 0 0 0
5161 345 1 0 -2088.5551706426786 651.1236558924566 -1201.8897970145479 0 0 0
1419 95 9 0 -1488.9588686664913 602.1246494536019 -1205.8029715619277 0 0 0
4688 313 8 0 -2990.555619828401 832.6759260587654 -1207.3256994432147 0 0 0
4685 313 5 0 -2918.943573641663 871.2778234796622 -1229.6621638261154 0 0 0
4692 313 12 0 -2841.924828773388 928.197558151494 -1229.7004475238084 0 0 0
4662 311 12 0 -1302.338669946652 940.4772125341602 -1222.7328979850124 0 0 0
4660 311 10 1 -1245.4482231103586 967.5623429984764 -1231.2868738569032 0 0 0
4083 273 3 -1.5 -1137.1768651185234 954.0115334186239 -1272.031337184988 0 0 0
4093 273 13 -0.5 -1179.9802638295857 958.4745655760631 -1272.0872709179844 0 0 0
4655 311 5 0 -1355.202887630628 985.1802984476664 -1266.8199079066035 0 0 0
4657 311 7 2 -1188.9461583941777 987.267300758601 -1245.2744292837788 0 0 0
4661 311 11 1 -1141.0531960882706 1000.5948054686787 -1267.3383527418157 0 0 0
4090 273 10 1 -1049.7363363170055 1024.7138679249667 -1271.7473690409554 0 0 0
4664 311 14 -1.5 -1015.6214214365582 1084.675028441638 -1274.9603695128071 0 0 0
4087 273 7 2 -1002.8044325688364 1057.619454303886 -1249.3976095536539 0 0 0
4091 273 11 1 -955.7269290878002 1082.474461135825 -1236.8226313103028 0 0 0
5635 376 10 1 -910.4000163792933 1121.1968715561172 -1261.2871033117135 0 0 0
4089 273 9 0 -897.6821079518305 1108.623209088679 -1215.7449950232638 0 0 0
4893 327 3 -1.5 -850.7426631723803 1122.8533996141148 -1248.0146326036995 0 0 0
4902 327 12 0 -809.755012615433 1121.071107301189 -1223.8804788414757 0 0 0
5630 376 5 0 -1041.9213701872375 1172.5976208752393 -1257.4320792256474 0 0 0
4903 327 13 -0.5 -863.8916247485541 1155.944126096889 -1271.4487728705426 0 0 0
5632 376 7 2 -862.2908211635219 1148.767441304954 -1233.1922279177431 0 0 0
4086 273 6 -0.5 -858.8661930701662 1144.3337526941623 -1210.7706555768214 0 0 0
4094 273 14 -1.5 -827.5642932316707 1168.1927585143526 -1231.4425029753993 0 0 0
4173 279 3 -1.5 -821.9179046063441 1167.7640515212074 -1233.879441147407 0 0 0
4182 279 12 0 -776.1595819740705 1161.8952945632932 -1252.6802446113466 0 0 0
5636 376 11 1 -816.0311464879312 1171.3524852533308 -1215.3306429148229 0 0 0
5634 376 9 0 -752.1221476187428 1188.8128106990234 -1204.1304202348797 0 0 0
4900 327 10 1 -752.2880518575683 1139.5293898634197 -1206.3032440029729 0 0 0
4180 279 10 1 -715.2036315596664 1154.888518412051 -1234.9623627965882 0 0 0
5383 359 13 -0.5 -688.9551157660497 1184.4994250236152 -1211.5703152167218 0 0 0
4177 279 7 2 -658.9429589058391 1152.1068266422697 -1208.2922864671439 0 0 0
5373 359 3 -1.5 -648.9789769146012 1194.543248715514 -1224.3115873218292 0 0 0
4232 283 2 0 -1879.5136006522082 1219.2564503364908 -1242.2773662299176 0 0 0
5626 376 1 0 -1168.4674168544427 1232.2039508277255 -1233.9839913679668 0 0 0
5633 376 8 0 -1114.43146042526 1213.2641810329926 -1254.1210120304922 0 0 0
4265 285 5 0 -620.6049621255908 1203.1828985913842 -1264.9420846327503 0 0 0
4235 283 5 0 -2188.996913656008 1292.0765967216414 -1245.6041823427327 0 0 0
4171 279 1 0 -757.6471368578939 1363.6325647534452 -1254.4346461438151 0 0 0
3626 242 11 1 -160.75937731445688 -1353.3435876868584 -1154.913730278642 0 0 0
3624 242 9 0 -102.20110861557045 -1376.908078299984 -1137.4739527462202 0 0 0
3621 242 6 -0.5 -59.27253485535628 -1407.920091912269 -1145.8900315475107 0 0 0
3629 242 14 -1.5 -17.0415273130439 -1411.4832148673927 -1158.3179979508318 0 0 0
2404 161 4 0 -2124.0133957595913 -1341.3439203928722 -1166.1058181765081 0 0 0
3622 242 7 2 -204.13001517252374 -1341.5764195146885 -1184.4017206195451 0 0 0
3778 252 13 -0.5 -2003.5713860060464 -1153.8963774346116 -1138.756489906524 0 0 0
3768 252 3 -1.5 -1979.5624219061358 -1158.07992990576 -1173.9958207283346 0 0 0
3777 252 12 0 -1930.8632023833893 -1165.4840880560644 -1180.2311109825346 0 0 0
2662 178 7 2 -116.97266503487194 -872.2822626628913 -1128.2457109242287 0 0 0
2664 178 9 0 -22.932975140178105 -848.1418367431964 -1199.085717791243 0 0 0
2666 178 11 1 -73.72126462419261 -864.8962692025217 -1159.616871471338 0 0 0
5533 369 13 -0.5 -2635.5011860072327 -560.4211131324089 -1163.092971661786 0 0 0
5523 369 3 -1.5 -2604.9164570855296 -584.6489925947326 -1145.8488860665593 0 0 0
1608 108 3 -1.5 -1541.859735983248 -563.4303919185345 -1128.5515206844775 0 0 0
920 62 5 0 -946.9650419496112 -546.9309325656566 -1165.2038395166805 0 0 0
252 17 12 0 -1294.7465435276035 -503.48620326329893 -1129.0193845752037 0 0 0
3389 226 14 -1.5 -435.45799333472 -238.5152901210215 -1125.0701691191646 0 0 0
647 44 2 0 -100.25579861294143 -84.53528960381098 -1178.3930478430939 0 0 0
649 44 4 0 -61.58345134253368 -114.46670519693735 -1180.3296879686186 0 0 0
3125 209 5 0 -1132.1281216376224 -8.96628307532288 -1147.5089517401086 0 0 0
5064 338 9 0 -696.8495063757256 -29.04604480121122 -1135.8268719933205 0 0 0
5070 338 15 0 -658.8601075582385 -46.33039484766302 -1197.1929724548163 0 0 0
5061 338 6 -0.5 -648.504541446366 -4.261699859276053 -1137.800867292829 0 0 0
5069 338 14 -1.5 -608.5942854361238 2.9570527069691406 -1156.7871290937303 0 0 0
659 44 14 -1.5 -104.78574483801192 12.01421037646323 -1170.9181669742475 0 0 0
1723 115 13 -0.5 -432.8646515143379 216.27239280722532 -1181.3430538766822 0 0 0
1717 115 7 2 -291.7058168345604 342.8727391201317 -1184.2987618676511 0 0 0
1054 71 4 0 -305.6881988234711 390.03332963430466 -1165.8804918865128 0 0 0
1721 115 11 1 -254.3654251183546 376.4942174585246 -1162.993425804277 0 0 0
1719 115 9 0 -200.11974145399677 408.6616831988963 -1140.768770429651 0 0 0
1064 71 14 -1.5 -376.1535399647426 488.16148810045996 -1165.1943966455258 0 0 0
1416 95 6 -0.5 -1448.5889111309743 599.4525037025832 -1168.323418322994 0 0 0
1424 95 14 -1.5 -1404.8968378196764 599.0973362121518 -1158.9441916509884 0 0 0
1291 87 1 0 -1010.6863531850663 530.7947595718456 -1183.6104871070625 0 0 0
5168 345 8 0 -2049.1233274982683 634.2994838862406 -1140.591697650496 0 0 0
1425 95 15 0 -1456.9874584525037 656.2184904706899 -1196.402522937642 0 0 0
1412 95 2 0 -1452.8815125136764 725.59477031345 -1173.2661863890705 0 0 0
1414 95 4 0 -1469.2633600622444 778.5318165963392 -1168.7887575935777 0 0 0
4690 313 10 1 -2812.533824360151 922.2086125396293 -1174.3730963801843 0 0 0
4663 311 13 -0.5 -1340.492491081042 921.7568020095563 -1148.5970907337344 0 0 0
4653 311 3 -1.5 -1341.5374973339883 930.7816435590005 -1190.646067289642 0 0 0
4095 273 15 0 -876.1344719654413 1103.880962510538 -1188.517744274306 0 0 0
4895 327 5 0 -857.7510296580525 1069.296302175461 -1136.7981018805285 0 0 0
4082 273 2 0 -835.47247479599 1122.9446183815512 -1152.5084912529358 0 0 0
4183 279 13 -0.5 -841.2188811127774 1152.2571553154457 -1198.2369208475545 0 0 0
4084 273 4 0 -783.1825951716796 1133.0954140338617 -1144.805138669514 0 0 0
5631 376 6 -0.5 -699.8545757124024 1171.834804572917 -1192.6247169564012 0 0 0
4897 327 7 2 -695.4142991637938 1154.7171372042737 -1186.3727755693837 0 0 0
5640 376 15 0 -734.4122720281184 1183.1706224439606 -1166.939363771347 0 0 0
4181 279 11 1 -611.3661779778756 1155.52745946161 -1182.1773081050228 0 0 0
5639 376 14 -1.5 -668.6793843584107 1168.787100186383 -1161.5379915230942 0 0 0
4901 327 11 1 -649.3913841487889 1173.5879233448381 -1164.2924372152002 0 0 0
4179 279 9 0 -548.978612248774 1162.4320931085588 -1162.1495423008241 0 0 0
4899 327 9 0 -586.1836151955449 1191.7728993271362 -1154.0513674328138 0 0 0
4176 279 6 -0.5 -504.300712398596 1187.6576385818348 -1149.869604956401 0 0 0
5377 359 7 2 -488.29676397512634 1199.2563376634719 -1166.474083969364 0 0 0
5385 359 15 0 -324.86026966717014 1160.936086315742 -1135.4481575190407 0 0 0
4357 291 7 2 -2053.8120022636476 1255.6724490937977 -1126.104163970697 0 0 0
4245 283 15 0 -1886.7907522956814 1237.2798733368718 -1197.2286234934445 0 0 0
4356 291 6 -0.5 -1881.335193526031 1248.1319709618672 -1141.3884799240225 0 0 0
4359 291 9 0 -1933.3867321818238 1244.88454253929 -1130.7884821166265 0 0 0
4364 291 14 -1.5 -1846.5140049148092 1230.6966176794785 -1162.5797881986218 0 0 0
4244 283 14 -1.5 -1825.1352813885596 1272.1006024219157 -1161.6452279947507 0 0 0
5382 359 12 0 -606.2327846277307 1202.1663127442496 -1198.8852760928637 0 0 0
4273 285 13 -0.5 -661.0021785672701 1208.467407870548 -1185.2106425158654 0 0 0
4263 285 3 -1.5 -627.6253280942152 1215.2865308199755 -1159.0086733607625 0 0 0
5380 359 10 1 -545.2186997769874 1201.1776090170026 -1188.0802963346512 0 0 0
4272 285 12 0 -585.4812301822276 1242.188951569582 -1168.8230222919287 0 0 0
4896 327 6 -0.5 -539.9463063256196 1205.1033797692535 -1130.2972676182917 0 0 0
4270 285 10 1 -519.5826266577309 1241.2292753634235 -1172.4306511437183 0 0 0
4904 327 14 -1.5 -498.56982219395684 1220.5080262592203 -1134.4122319582482 0 0 0
4184 279 14 -1.5 -485.14946543323975 1224.573297558421 -1136.0188828263485 0 0 0
4267 285 7 2 -458.5499626861145 1242.240378723489 -1161.6022831082348 0 0 0
5381 359 11 1 -435.8810960453232 1201.5260420890731 -1153.5735350205 0 0 0
4271 285 11 1 -406.7697701665873 1237.98465619367 -1146.2289473424776 0 0 0
5379 359 9 0 -367.3909404339168 1201.7361491134734 -1152.394210277736 0 0 0
5376 359 6 -0.5 -315.7446209416925 1208.8487474429169 -1135.077093445052 0 0 0
4269 285 9 0 -343.12117733724426 1248.2323067940795 -1129.7982828718948 0 0 0
5384 359 14 -1.5 -273.4796480754243 1213.4352273063894 -1147.1596600553055 0 0 0
4266 285 6 -0.5 -286.2860572612265 1255.3366573913622 -1135.8848943602213 0 0 0
4233 283 3 -1.5 -2203.3224263742063 1315.8406079001677 -1129.553937430737 0 0 0
4242 283 12 0 -2157.61844622285 1315.5272768196787 -1145.5258236854697 0 0 0
4240 283 10 1 -2093.0645706669175 1310.5282149180127 -1141.9392776059822 0 0 0
4237 283 7 2 -2032.0221706250345 1312.5571523917881 -1143.9303366706797 0 0 0
4241 283 11 1 -1978.4240307617338 1308.2035072264084 -1149.0397188169777 0 0 0
4239 283 9 0 -1915.7983882557774 1287.2443626610902 -1151.0227682268958 0 0 0
4236 283 6 -0.5 -1867.1593519531373 1281.6059044864676 -1171.2207899551693 0 0 0
3630 242 15 0 -79.23064920447105 -1443.2511465599537 -1111.9745594037483 0 0 0
3617 242 2 0 -71.88814808528102 -1492.9005087370347 -1071.8310862710093 0 0 0
3770 252 5 0 -1887.608579659528 -1153.9671253847016 -1114.1063432065382 0 0 0
3773 252 8 0 -1855.7782037144598 -1135.0596821263932 -1082.9052928789606 0 0 0
2667 178 12 0 -214.17858167217116 -907.8624880489208 -1059.3938927752927 0 0 0
2665 178 10 1 -169.24175290928127 -884.3028535209244 -1097.762923613959 0 0 0
1306 88 1 0 -194.7820168163585 -790.3887167230898 -1117.6929251683127 0 0 0
5532 369 12 0 -2581.013529185198 -583.5692739705843 -1103.0907330498083 0 0 0
5530 369 10 1 -2530.158920119485 -554.0152912989814 -1077.9751958136358 0 0 0
1618 108 13 -0.5 -1568.9730485434745 -595.6606795341856 -1121.023670827352 0 0 0
1617 108 12 0 -1498.256269135318 -548.4214332502222 -1108.511572436616 0 0 0
1615 108 10 1 -1436.2753223073237 -538.3843322595551 -1110.6108346572946 0 0 0
253 17 13 -0.5 -1353.4731132390782 -545.6774160312854 -1086.9363510192015 0 0 0
1612 108 7 2 -1377.4757742583477 -520.676934167244 -1105.474294962471 0 0 0
243 17 3 -1.5 -1335.9711868531822 -517.617251816147 -1113.95082884111 0 0 0
1616 108 11 1 -1324.9218483744894 -512.760859691036 -1093.6848451211981 0 0 0
250 17 10 1 -1232.4274683031888 -506.2205184964436 -1116.1620214562395 0 0 0
1611 108 6 -0.5 -1221.934445430054 -459.09341366372894 -1099.8847303119758 0 0 0
1614 108 9 0 -1268.073864012264 -482.4879043960604 -1083.2887615997647 0 0 0
1620 108 15 0 -1203.9888513056446 -503.63986681902304 -1053.6341509050499 0 0 0
1619 108 14 -1.5 -1178.6898935975541 -467.46798826869656 -1104.7556719449426 0 0 0
247 17 7 2 -1170.557219873331 -505.2965862779293 -1110.6290547310825 0 0 0
1607 108 2 0 -1140.4766941621976 -490.2712391697624 -1063.877951045203 0 0 0
251 17 11 1 -1117.4009623904817 -507.3995361479213 -1101.2992964305206 0 0 0
1609 108 4 0 -1100.0705616752432 -463.52334767726086 -1085.804909839952 0 0 0
249 17 9 0 -1054.3676490523153 -496.512860965446 -1081.3819550591897 0 0 0
928 62 13 -0.5 -1015.8421062058734 -521.1364752632056 -1079.891648296704 0 0 0
246 17 6 -0.5 -1011.6338551344423 -467.71164383456875 -1064.42906498561 0 0 0
918 62 3 -1.5 -983.7367088924758 -502.23295130903807 -1058.1859984401335 0 0 0
927 62 12 0 -939.7840486800809 -483.8384283271392 -1072.656383938941 0 0 0
925 62 10 1 -878.2379737921524 -469.6416361345587 -1061.8734337566493 0 0 0
922 62 7 2 -819.9187900425472 -453.0341014330942 -1054.602950923736 0 0 0
917 62 2 0 -612.8872090420754 -390.28454287559254 -1059.4240251330946 0 0 0
919 62 4 0 -582.9281090246981 -366.2671266223735 -1109.3722278780363 0 0 0
3386 226 11 1 -551.2292714309215 -331.30500306453337 -1069.791837327276 0 0 0
3384 226 9 0 -490.34968581803656 -305.2636815422729 -1083.7331892078528 0 0 0
3381 226 6 -0.5 -451.21699247184165 -271.6787482580688 -1099.1820678041263 0 0 0
5433 363 3 -1.5 -467.4611590397741 -230.7492814058177 -1073.2934521709667 0 0 0
5443 363 13 -0.5 -491.6891659814725 -263.0670158721749 -1087.6179505578275 0 0 0
3134 209 14 -1.5 -790.6788581719078 -91.66726737690753 -1077.3991397443895 0 0 0
3133 209 13 -0.5 -1199.6149053901258 -56.8781192493704 -1054.6489522599304 0 0 0
5068 338 13 -0.5 -1006.9535069013994 -68.83557451973356 -1071.4297072493548 0 0 0
5065 338 10 1 -861.8870070068496 -62.36174490558988 -1073.3137467705947 0 0 0
3135 209 15 0 -833.6333370890998 -21.014502402124922 -1079.7917169832674 0 0 0
5062 338 7 2 -804.5595397954272 -59.14117666682022 -1094.8560432833667 0 0 0
3122 209 2 0 -782.335193990649 -15.325849543091786 -1089.3587395472507 0 0 0
5066 338 11 1 -754.0698777916647 -51.85884342034879 -1112.220784442392 0 0 0
3124 209 4 0 -731.7662148847031 15.681462893047696 -1100.7171927429624 0 0 0
1003 67 13 -0.5 -1130.6444953770783 284.14171875812326 -1090.2584491532298 0 0 0
993 67 3 -1.5 -1091.179171062609 278.2144304759856 -1074.249849353727 0 0 0
1716 115 6 -0.5 -162.9749251546873 425.80269000953064 -1105.2681538828358 0 0 0
1724 115 14 -1.5 -135.92839704772922 419.0977606093165 -1070.5081745974446 0 0 0
991 67 1 0 -1113.7088803239549 478.008655377914 -1070.5168136629602 0 0 0
1295 87 5 0 -1041.9984682034656 462.6007906103353 -1064.0355114744336 0 0 0
1298 87 8 0 -1018.8581719297998 518.5854231447967 -1109.6902102955514 0 0 0
1725 115 15 0 -197.45489838463297 462.8550209039593 -1099.8424220955374 0 0 0
5165 345 5 0 -2044.6703767263548 651.5504305404256 -1072.5630940823598 0 0 0
5173 345 13 -0.5 -2147.1747066761404 688.6631894308435 -1064.8622480812874 0 0 0
4066 272 1 0 -2768.945588590723 822.4502366366461 -1064.144823927666 0 0 0
4691 313 11 1 -2765.551239400169 889.1743780130053 -1074.3027556777602 0 0 0
4687 313 7 2 -2785.485122815523 905.9135297960779 -1120.78603065553 0 0 0
4898 327 8 0 -877.8133681408875 1041.5819351828748 -1051.5473274975475 0 0 0
5374 359 4 0 -240.6923918742734 1110.0565602395016 -1058.1370977332933 0 0 0
4352 291 2 0 -1860.6062788820052 1184.3464905993314 -1072.8746176269624 0 0 0
5627 376 2 0 -716.4550376936423 1181.816531765383 -1089.3563287550678 0 0 0
4185 279 15 0 -517.767681064245 1156.5347650851454 -1100.9508154994996 0 0 0
5372 359 2 0 -279.06701022317117 1135.4878425709041 -1091.810569775473 0 0 0
4262 285 2 0 -266.9496290303305 1199.838788865982 -1076.9934920411301 0 0 0
4264 285 4 0 -250.66242529947672 1153.4286702147672 -1058.715716475817 0 0 0
4353 291 3 -1.5 -2220.8726399908865 1262.7934806519818 -1085.9386013141268 0 0 0
4360 291 10 1 -2114.5827187004093 1261.5941961831923 -1119.1744185595971 0 0 0
4361 291 11 1 -1999.6294203016862 1255.6381858141135 -1124.3366787973325 0 0 0
4365 291 15 0 -1906.0872869675566 1202.0085345909931 -1111.005709724907 0 0 0