LAMMPS data file via write_data, version 27 Jun 2024, timestep = 4800000, units = real

5730 atoms
15 atom types
5428 bonds
16 bond types
5730 angles
15 angle types

-3000 3000 xlo xhi
-1500 1500 ylo yhi
-1500 1500 zlo zhi

Masses

1 241.19
2 73.54000000000001
3 330.71
4 235.16
5 68.06999999999999
6 353.53
7 223.38
8 41.1
9 216.91
10 155.15
11 147.32
12 264.65
13 300.8
14 326.05
15 85.20999999999999

Pair Coeffs # lj/cut/coul/debye/gpu

1 0.71637 40.7505
2 0.665709 48.1397
3 1.15033 39.2216
4 0.726774 43.8077
5 0.514724 53.3428
6 1.17127 41.7847
7 1.2256 38.5601
8 0.675431 54.5696
9 1.26117 43.78
10 0.939007 42.5209
11 0.960667 41.1825
12 1.30988 48.0761
13 1.36645 37.7114
14 1.35529 39.2179
15 0.592003 47.2602

Bond Coeffs # harmonic

1 0.003 59.228
2 0.008 56.48
3 0.001 69.324
4 3.207 42.88
5 0.11 49.807
6 0.002 74.968
7 0.001 91.635
8 0.145 54.383
9 2.709 44.406
10 1.71 61.679
11 1.625 54.051
12 0.207 66.185
13 0.002 64.76
14 0.079 63.886
15 0.2 40
16 0.2 40

Angle Coeffs # harmonic

1 11.427 158.273
2 50.464 132.042
3 8.207 156.514
4 92.705 149.394
5 100 174.44
6 3.15 145.53
7 48.938 159.031
8 17.401 129.945
9 15.735 56.441
10 60 172.254
11 60.285 168.396
12 11.83 99.091
13 150 107.995
14 27.746 149.925
15 7.483 160.775

Atoms # full

2403 161 3 -1.5 -2445.8984259405047 -1430.155396589036 -1466.7461439644392 0 0 0
2412 161 12 0 -2396.3897655709743 -1436.9568797231466 -1463.0887011885277 0 0 0
2410 161 10 1 -2342.0037356036864 -1429.1836845682121 -1425.0677114010857 0 0 0
2552 171 2 0 -1273.4780054905507 -1276.8576523164475 -1480.5573978949913 0 0 1
2554 171 4 0 -1271.4419687243326 -1244.741838605943 -1439.8241543492425 0 0 1
3623 242 8 0 -351.0839615738341 -1208.697012119214 -1452.4627995605408 0 0 0
3616 242 1 0 -394.86805470041736 -1179.7866014923707 -1466.2667942427638 0 0 0
2591 173 11 1 -1711.5027962597171 -517.5355075523566 -1466.2034727998819 0 0 1
2938 196 13 -0.5 -2543.6060650390673 -336.5434525960598 -1432.1777198557975 0 0 0
2928 196 3 -1.5 -2517.569264781215 -305.4033695131793 -1446.27023495998 0 0 0
965 65 5 0 -2801.3048990528737 -270.7877205250898 -1460.8380290461137 0 0 0
2937 196 12 0 -2506.2893889214265 -261.33706096587315 -1428.8358501424698 0 0 0
1074 72 9 0 -428.9744672420817 -293.47411291892297 -1465.5646781973521 0 0 1
1071 72 6 -0.5 -424.70357002603976 -250.13933182555306 -1432.7379016048417 0 0 1
966 65 6 -0.5 -2469.2611656252825 -189.08012249960933 -1426.5874832097586 0 0 0
1080 72 15 0 -391.63893652502253 -219.35861187800188 -1477.930642263752 0 0 1
1067 72 2 0 -385.0916020733459 -117.84968049940024 -1480.3490448012124 0 0 1
1069 72 4 0 -387.11569399154735 -58.94661089913135 -1460.8769502319972 0 0 1
648 44 3 -1.5 -345.8786634290803 45.8341700918251 -1455.3609583890616 0 0 0
658 44 13 -0.5 -332.4991240350031 33.76460536947614 -1494.4915139667414 0 0 0
650 44 5 0 -350.9679529049889 174.3415474351928 -1453.9768279341617 0 0 0
653 44 8 0 -339.4836503879088 249.40746651938875 -1474.4214982138444 0 0 0
646 44 1 0 -333.4458661734088 301.3290698382581 -1474.3716916573503 0 0 0
1418 95 8 0 -1755.4501150818542 405.23795577973146 -1470.9431537436901 0 0 0
4933 329 13 -0.5 -1877.1403488421142 460.87838171696166 -1478.9989973568831 0 0 0
4923 329 3 -1.5 -1900.4574245718172 493.2049874618151 -1462.3774396862523 0 0 0
4925 329 5 0 -1940.099382112319 570.9010230317934 -1467.6711363472189 0 0 0
4932 329 12 0 -1885.8742769171884 536.1582926967208 -1444.929562142302 0 0 0
4928 329 8 0 -2026.0555693091205 626.7394360115571 -1459.538370040639 0 0 0
1404 94 9 0 -2210.384124711599 883.657495625771 -1498.710943263261 0 0 1
1409 94 14 -1.5 -2130.6797182522737 857.7851675636888 -1449.3754660890404 0 0 1
1401 94 6 -0.5 -2167.386146559501 879.7578032558764 -1461.8927375078065 0 0 1
1410 94 15 0 -2189.30928178416 963.7995952219409 -1462.3218931644265 0 0 1
4481 299 11 1 -1959.002003970288 994.6317435139208 -1494.913239614955 0 0 0
4479 299 9 0 -1908.7495000626107 1022.6917443160826 -1464.2548190542657 0 0 0
1397 94 2 0 -2193.1425117996682 1060.1901018569001 -1460.5491796743104 0 0 1
1399 94 4 0 -2178.1312739501323 1106.0649890722466 -1435.4824633820763 0 0 1
2407 161 7 2 -2290.0119452946565 -1422.212628898313 -1393.587025582523 0 0 0
2411 161 11 1 -2242.322701758197 -1420.529688362457 -1369.019660211048 0 0 0
3620 242 5 0 -358.3137162400541 -1256.009899021093 -1392.9076677797689 0 0 0
3767 252 2 0 -1662.720680079939 -1054.2604041960742 -1399.7965463879314 0 0 0
3769 252 4 0 -1604.4648623158391 -1051.0282032473071 -1424.5706469855197 0 0 0
1803 121 3 -1.5 -2506.255827065753 -571.0243118034641 -1360.9093093794472 0 0 0
2595 173 15 0 -1651.6750388390071 -578.6941154028277 -1361.4074226051757 0 0 1
2589 173 9 0 -1682.606945365186 -524.0619664971645 -1406.2969582631138 0 0 1
2586 173 6 -0.5 -1653.0419898100988 -514.444769139024 -1365.0828166877507 0 0 1
972 65 12 0 -2737.5782777978397 -301.68260037083724 -1387.2760960689145 0 0 0
963 65 3 -1.5 -2773.053278291538 -310.587669951639 -1350.9192572656718 0 0 0
970 65 10 1 -2677.4818047700574 -289.01472651070014 -1404.7947985077644 0 0 0
967 65 7 2 -2617.8819032772662 -273.8238275796106 -1410.4234472774465 0 0 0
971 65 11 1 -2567.7517953824413 -253.08523847496733 -1413.272243803225 0 0 0
1079 72 14 -1.5 -426.588920748417 -231.0616447350798 -1392.5472103954671 0 0 1
2930 196 5 0 -2599.678287616335 -217.86416403499607 -1410.2789850743525 0 0 0
969 65 9 0 -2516.336115538515 -211.42490742738997 -1417.4847801110577 0 0 0
975 65 15 0 -2505.9505705471615 -155.42217850496888 -1386.6219137485202 0 0 0
2935 196 10 1 -2466.755750278651 -218.3755915958539 -1409.919045319777 0 0 0
974 65 14 -1.5 -2429.9202597269336 -173.78530246307534 -1412.6776001355001 0 0 0
2932 196 7 2 -2430.7045180455834 -181.8697178719811 -1375.5870684793408 0 0 0
2926 196 1 0 -2714.2120606795925 -132.557332262756 -1376.6512770692975 0 0 0
2933 196 8 0 -2662.420808067105 -138.2072497624282 -1401.6225672506796 0 0 0
962 65 2 0 -2525.658295929521 -113.82090418705064 -1370.856467052949 0 0 0
964 65 4 0 -2532.0243146147473 -49.32272753947129 -1370.6143906864065 0 0 0
657 44 12 0 -323.4664229095986 69.17458110423456 -1416.7336291610388 0 0 0
655 44 10 1 -286.1776145821556 73.10757603093307 -1365.0210490726186 0 0 0
1415 95 5 0 -1747.4809885609425 420.037298192303 -1373.1678467602303 0 0 0
1058 71 8 0 -713.6825134307985 449.8060986244002 -1379.0521784815833 0 0 0
1051 71 1 0 -682.3805066565541 425.9391810049566 -1410.4710032526277 0 0 0
4930 329 10 1 -1856.8674865589765 577.5682211799451 -1406.0053805654536 0 0 0
4921 329 1 0 -2059.1598018422205 613.8476970268969 -1393.4707785163212 0 0 0
4927 329 7 2 -1839.1552959077726 617.0255151403254 -1361.0409327771208 0 0 0
4681 313 1 0 -2973.944503248903 750.4062211604021 -1367.0359223513974 0 0 0
4693 313 13 -0.5 -2801.6474453191668 891.4941159635703 -1366.2802655773912 0 0 0
4683 313 3 -1.5 -2815.8034874732343 852.7595427894875 -1353.2077040063155 0 0 0
4476 299 6 -0.5 -1871.4361791148665 1026.5757697885988 -1424.6833610769602 0 0 0
4484 299 14 -1.5 -1863.010049512938 1043.9982343986294 -1385.2214892339293 0 0 0
4485 299 15 0 -1923.9426219856646 1065.5214133686145 -1396.2285448738912 0 0 0
4903 327 13 -0.5 -770.1115487213278 1161.5992560900786 -1378.0688051730626 0 0 0
5626 376 1 0 -943.8119386368523 1271.5623458182836 -1372.542916834972 0 0 0
2409 161 9 0 -2184.9038029039243 -1404.4977576689269 -1342.897892186123 0 0 0
2415 161 15 0 -2161.699388726711 -1399.890120466046 -1291.495572828498 0 0 0
2406 161 6 -0.5 -2139.2898320484956 -1376.7026310258639 -1334.4027253433676 0 0 0
2414 161 14 -1.5 -2103.7621117884564 -1353.3843810550002 -1348.1762351957736 0 0 0
3618 242 3 -1.5 -382.3565514680621 -1344.6350541833945 -1349.205542541416 0 0 0
3628 242 13 -0.5 -412.08966728634846 -1349.2857114201756 -1319.250740271574 0 0 0
3627 242 12 0 -341.80711568751394 -1312.064390406381 -1346.5654085183742 0 0 0
3625 242 10 1 -283.43430478260177 -1299.8992653617559 -1325.5401036092278 0 0 0
3622 242 7 2 -222.23716262976822 -1295.5428053241183 -1314.9471827974173 0 0 0
3626 242 11 1 -170.18809132607393 -1296.4956701633932 -1299.582322818943 0 0 0
3617 242 2 0 -13.235709749064076 -1319.0792308940268 -1316.7626978292822 0 0 0
3630 242 15 0 -52.89178594222543 -1310.637475541577 -1289.5189100195853 0 0 0
3629 242 14 -1.5 -36.23319412130465 -1227.784777979753 -1277.526928801575 0 0 0
3771 252 6 -0.5 -1684.9154450193785 -1077.3900850066275 -1275.4788599637923 0 0 0
3779 252 14 -1.5 -1646.8974818383888 -1085.7925135893697 -1295.7507542734504 0 0 0
3780 252 15 0 -1702.3476721192199 -1049.5294911659953 -1323.264146056536 0 0 0
2668 178 13 -0.5 -257.26251674920456 -965.1476945570012 -1285.5995431641352 0 0 0
2582 173 2 0 -1618.9512645336235 -620.1635768412216 -1286.3045940238417 0 0 1
1813 121 13 -0.5 -2533.255441319542 -592.9251009331839 -1336.7662995519545 0 0 0
1812 121 12 0 -2463.0443106967946 -556.7539643416511 -1347.641594311369 0 0 0
1810 121 10 1 -2401.1409697041677 -578.8455849382032 -1326.874664409555 0 0 0
1807 121 7 2 -2342.575345042013 -587.6690734607262 -1307.29561314856 0 0 0
1811 121 11 1 -2294.3301337099074 -585.2070951585496 -1283.1078311642236 0 0 0
1805 121 5 0 -2474.7147356883343 -473.4828102371771 -1317.7747353819682 0 0 0
2594 173 14 -1.5 -1644.3720144535425 -490.5426619098878 -1328.4652180639853 0 0 1
1801 121 1 0 -2596.6697166772974 -416.0751257294458 -1320.957463605196 0 0 0
1808 121 8 0 -2529.10597316203 -431.9556707966436 -1314.271455869947 0 0 0
1802 121 2 0 -2189.282982690829 -430.6764483695321 -1321.4138125359116 0 0 0
1804 121 4 0 -2179.060364296708 -373.38287671360047 -1330.3328541003166 0 0 0
241 17 1 0 -1211.1547246339271 -372.74086282024615 -1303.9815122970488 0 0 0
973 65 13 -0.5 -2797.238065749118 -286.3018002378831 -1325.0692362165992 0 0 0
2936 196 11 1 -2395.4152100376436 -152.51946943855827 -1348.8233257722684 0 0 0
2934 196 9 0 -2359.2155963820223 -118.63796663861918 -1303.844038582198 0 0 0
2931 196 6 -0.5 -2316.938856046241 -106.55976561204034 -1275.660509271383 0 0 0
2940 196 15 0 -2325.056601584421 -40.1175099907432 -1291.616930285718 0 0 0
2927 196 2 0 -2338.170338782433 32.91094897549897 -1294.371774973196 0 0 0
652 44 7 2 -248.518798426223 68.2415656917987 -1316.9065787644263 0 0 0
2929 196 4 0 -2333.4395997300358 90.79258358798063 -1314.677390105538 0 0 0
1723 115 13 -0.5 -408.3062473385847 219.614922179023 -1289.6218993375248 0 0 0
1713 115 3 -1.5 -384.0487313085745 254.86631820845457 -1283.5620881136283 0 0 0
1423 95 13 -0.5 -1790.2880556904158 371.2743281784544 -1280.4106991841506 0 0 0
1422 95 12 0 -1753.9836798257402 447.3241340001609 -1292.1001439264144 0 0 0
1413 95 3 -1.5 -1792.0795711438545 413.66065501399106 -1286.5225589467477 0 0 0
1055 71 5 0 -715.4296662660802 446.9273353347045 -1316.1051853309527 0 0 0
1054 71 4 0 -337.0114793868735 458.6532378649768 -1306.5339803216386 0 0 0
4931 329 11 1 -1821.0572863659486 657.5741823589766 -1329.974464342882 0 0 0
4929 329 9 0 -1804.094010473786 700.0705974695256 -1280.6655415651078 0 0 0
4688 313 8 0 -2934.1489433698907 783.302970411557 -1326.531884297448 0 0 0
4685 313 5 0 -2865.4966613311963 812.6455820041936 -1301.0524241495586 0 0 0
4692 313 12 0 -2808.2828098488117 832.9963540345327 -1310.2798156421334 0 0 0
4922 329 2 0 -1869.8776090174713 850.1742510500046 -1286.1212883500807 0 0 0
4924 329 4 0 -1882.2454003209432 908.6503599547237 -1282.1930891568857 0 0 0
4472 299 2 0 -1921.352093526468 1083.1364801597033 -1337.7296165625635 0 0 0
4231 283 1 0 -2315.8587093796095 1186.161595194442 -1320.2560209579385 0 0 0
4651 311 1 0 -1312.1968788187228 1135.8712565284623 -1287.4996194602409 0 0 0
4893 327 3 -1.5 -779.0383261933023 1154.8413167418748 -1336.4509121300487 0 0 0
4902 327 12 0 -754.2866582580921 1155.1402048405018 -1292.9877004233904 0 0 0
5633 376 8 0 -971.4611712875218 1272.9686627438602 -1331.3849438579532 0 0 0
4082 273 2 0 -864.7790558871633 1249.815581966386 -1276.1173388139662 0 0 0
4178 279 8 0 -705.5493914388508 1256.4024747913943 -1308.2045704023278 0 0 0
4084 273 4 0 -833.390918375734 1288.9733294552273 -1304.5226912238982 0 0 0
4171 279 1 0 -653.7937803789509 1294.5081722187008 -1336.0853529529795 0 0 0
4261 285 1 0 -646.0713984825736 1333.2313728944305 -1294.1438673597545 0 0 0
2402 161 2 0 -2119.5042665835404 -1389.6988261311546 -1259.4867077226909 0 0 0
2404 161 4 0 -2069.2899885982833 -1368.6388210796413 -1246.3939191836116 0 0 0
3624 242 9 0 -111.42056396795078 -1285.1530517667354 -1273.8080487222614 0 0 0
3621 242 6 -0.5 -62.485702223524164 -1261.8721257183308 -1268.2635754165888 0 0 0
3778 252 13 -0.5 -2043.9194800709388 -1156.134801556991 -1240.2921308248099 0 0 0
3768 252 3 -1.5 -2004.9505060886556 -1167.2192266756952 -1226.3151071785983 0 0 0
3777 252 12 0 -1964.1149679775713 -1140.251634696863 -1211.6605359517605 0 0 0
3775 252 10 1 -1908.4212299828278 -1112.1068817615508 -1226.422417120025 0 0 0
3772 252 7 2 -1849.6414371698716 -1094.7804155933443 -1235.9203526470335 0 0 0
3776 252 11 1 -1796.8064916282729 -1090.6662235573408 -1246.6670183650617 0 0 0
3774 252 9 0 -1737.6261682856643 -1084.226048996128 -1274.440216716674 0 0 0
2658 178 3 -1.5 -219.06030398493243 -960.0465787967507 -1266.3214486805075 0 0 0
2667 178 12 0 -199.425558515165 -920.7063038460022 -1242.8520717623035 0 0 0
2660 178 5 0 -282.45948154112136 -846.7136952208419 -1273.9951979495672 0 0 0
2665 178 10 1 -143.2973152169257 -888.941282306441 -1233.3311259894472 0 0 0
2662 178 7 2 -96.48881406261384 -851.8272836249693 -1216.987028776777 0 0 0
2663 178 8 0 -311.4127845868057 -779.8131064140189 -1271.2048695316687 0 0 0
2666 178 11 1 -62.42442157396583 -813.1807231755845 -1200.4653539891538 0 0 0
2656 178 1 0 -301.17786257189476 -706.6665992805014 -1264.7106026980607 0 0 0
2584 173 4 0 -1584.136344345808 -631.0509169703946 -1236.3685440880042 0 0 1
1618 108 13 -0.5 -1568.9874934924653 -669.4307802451438 -1261.5256807701085 0 0 0
1608 108 3 -1.5 -1539.4115510404954 -667.0066574696984 -1230.8036994010004 0 0 0
1617 108 12 0 -1509.0698210509315 -632.1365788061755 -1218.7157457031574 0 0 0
1615 108 10 1 -1446.0011860396405 -621.985623491261 -1204.5924917159357 0 0 0
916 62 1 0 -1014.4136188697817 -620.2325339617423 -1249.6620502508563 0 0 0
1809 121 9 0 -2246.8234263008853 -558.9589529681716 -1246.8658496352089 0 0 0
1806 121 6 -0.5 -2224.387899938099 -538.2129654472643 -1207.2766465310808 0 0 0
1610 108 5 0 -1557.8600225203065 -547.4112224405328 -1249.6943908188787 0 0 0
1815 121 15 0 -2212.5803564357047 -510.2759833777618 -1267.4114231561748 0 0 0
1613 108 8 0 -1604.423353839288 -471.5594914949494 -1243.3251629273443 0 0 0
1606 108 1 0 -1580.3491060988172 -400.88102523580045 -1212.2929945900134 0 0 0
248 17 8 0 -1238.1233619779857 -364.18142089931723 -1241.229209577722 0 0 0
2939 196 14 -1.5 -2282.5351854310898 -78.38631557528329 -1268.9189381645008 0 0 0
3121 209 1 0 -1120.2562384710773 59.79259818041833 -1248.462206285261 0 0 0
654 44 9 0 -163.89716779690394 61.47156957437445 -1232.6535165495418 0 0 0
656 44 11 1 -217.27004899917125 61.10930166024123 -1273.300841245406 0 0 0
660 44 15 0 -139.76889504289954 15.044799240185117 -1208.6077531053033 0 0 0
1715 115 5 0 -470.8015871077337 286.8558379733031 -1201.9396038363975 0 0 0
1722 115 12 0 -389.8552959559387 296.0455493062912 -1254.70060358768 0 0 0
4306 288 1 0 -4.757216815610718 252.10698243345382 -1247.4018834511628 0 0 0
1720 115 10 1 -355.0237513671103 345.8886627732275 -1229.7278843014037 0 0 0
1053 71 3 -1.5 -744.4249652784187 445.86600634243126 -1219.6081152138422 0 0 0
1717 115 7 2 -321.23487701273825 388.46425134581904 -1200.2398944339918 0 0 0
1420 95 10 1 -1693.2679621727264 467.5862195969937 -1273.5708004383882 0 0 0
1417 95 7 2 -1636.9569086116805 490.5588913180921 -1261.462067263341 0 0 0
1421 95 11 1 -1589.122542451116 508.77495060347417 -1243.5663128433846 0 0 0
1062 71 12 0 -704.2800650118126 469.1282071780026 -1235.7810767992175 0 0 0
1060 71 10 1 -642.16112298578 482.6951754877578 -1224.0821613067692 0 0 0
1057 71 7 2 -581.3368178724807 485.8757089746676 -1213.405232447789 0 0 0
1061 71 11 1 -527.6999603850837 486.9996149765771 -1206.4821645004658 0 0 0
1065 71 15 0 -405.84967630693865 487.3221405273707 -1223.3549065144075 0 0 0
1052 71 2 0 -374.1910737027305 490.66365334994947 -1266.2510550197665 0 0 0
1419 95 9 0 -1530.5887683934868 540.0498222602758 -1242.508860693082 0 0 0
1425 95 15 0 -1521.781329585812 585.7368928850253 -1236.5508562237194 0 0 0
1416 95 6 -0.5 -1478.40830596311 542.8383046292703 -1231.6208476785976 0 0 0
1424 95 14 -1.5 -1438.716071233573 560.4758767766164 -1241.7427527424493 0 0 0
1412 95 2 0 -1545.8976251896652 672.5781259537162 -1208.4458331988617 0 0 0
1414 95 4 0 -1587.996912822044 721.4454225807276 -1203.6552184696175 0 0 0
4687 313 7 2 -2742.503801755193 822.1034429923881 -1203.6631670612624 0 0 0
4935 329 15 0 -1845.7989208233873 759.4986315110243 -1270.0363123932405 0 0 0
4926 329 6 -0.5 -1790.652519286218 751.05267460369 -1259.5409380053368 0 0 0
4934 329 14 -1.5 -1791.8020894565918 778.1749086902337 -1224.4203517966773 0 0 0
4690 313 10 1 -2776.9570506166906 830.3466022187562 -1253.8867683672534 0 0 0
4474 299 4 0 -1940.7116861739487 1072.5686287844271 -1268.4328390555497 0 0 0
4655 311 5 0 -1335.3225922006686 1080.4284413187981 -1208.8516468646658 0 0 0
4658 311 8 0 -1340.189534661161 1105.0680625798807 -1251.7658403737419 0 0 0
4092 273 12 0 -1129.55453685734 1070.0213843742495 -1203.562696882915 0 0 0
4090 273 10 1 -1067.8724417402605 1072.7273087622143 -1202.2297389613698 0 0 0
5638 376 13 -0.5 -985.4335888512794 1118.0608156685785 -1212.0109567711152 0 0 0
4087 273 7 2 -1008.0354787532171 1086.6833314524833 -1206.302536677205 0 0 0
4091 273 11 1 -954.63980027727 1091.2135212535873 -1210.3390172205586 0 0 0
4086 273 6 -0.5 -836.0773030107205 1112.2328484071365 -1229.170447124302 0 0 0
4089 273 9 0 -889.0296714006716 1109.3252763851856 -1217.6933207572708 0 0 0
4094 273 14 -1.5 -793.6229333440599 1104.2245915177689 -1216.669466361793 0 0 0
5383 359 13 -0.5 -621.8475434152996 1114.3274894317365 -1228.0943808838442 0 0 0
5631 376 6 -0.5 -645.3620292311052 1115.7893916505693 -1256.6027783931022 0 0 0
4901 327 11 1 -588.3611465461801 1120.184555737077 -1247.4013826932041 0 0 0
5373 359 3 -1.5 -591.9593374682586 1120.1935621857062 -1258.1796847302016 0 0 0
4363 291 13 -0.5 -2262.04055636713 1187.835799939781 -1239.2429080785432 0 0 0
4085 273 5 0 -1169.0338358720717 1151.6752570480076 -1247.1355302746103 0 0 0
4095 273 15 0 -865.7035420324627 1166.5220929691864 -1245.889147472151 0 0 0
4895 327 5 0 -791.9850872332424 1141.2075668702823 -1249.3410485857166 0 0 0
4173 279 3 -1.5 -795.1539985500858 1132.575516414763 -1201.0952473368873 0 0 0
5636 376 11 1 -750.3366988147216 1131.873584417627 -1213.6955483441582 0 0 0
4898 327 8 0 -823.1339104206521 1178.5783507303704 -1218.5042282313111 0 0 0
5634 376 9 0 -686.4499115130695 1128.5109801151107 -1227.1078105026197 0 0 0
4900 327 10 1 -700.0915635343825 1137.377511036872 -1272.2103718076642 0 0 0
5639 376 14 -1.5 -602.2129326439178 1125.152888252012 -1263.685658281415 0 0 0
4897 327 7 2 -641.2604083649319 1128.3054881304508 -1259.2423507199026 0 0 0
5640 376 15 0 -647.3986066819944 1161.427104901418 -1221.2769574273377 0 0 0
4273 285 13 -0.5 -607.0930219416065 1154.113530891105 -1228.585977031816 0 0 0
4899 327 9 0 -526.1177510034587 1125.6434977196743 -1235.1519147872875 0 0 0
5382 359 12 0 -558.349490683733 1154.506305995698 -1267.2202404390346 0 0 0
4263 285 3 -1.5 -565.7579082578712 1145.6889111937921 -1218.6375223840978 0 0 0
4272 285 12 0 -525.8125475106184 1172.9497053426082 -1220.4745699183486 0 0 0
5627 376 2 0 -587.2079621773878 1197.4539939156448 -1220.9206797520267 0 0 0
5380 359 10 1 -493.56037411700447 1171.9112431037827 -1274.3335997749944 0 0 0
4896 327 6 -0.5 -480.1461973251881 1154.754772197491 -1231.7312732138018 0 0 0
4904 327 14 -1.5 -456.4716395768484 1191.8647915483987 -1234.9879475354521 0 0 0
5377 359 7 2 -433.8309215687177 1185.8738259799538 -1267.8016721609433 0 0 0
4238 283 8 0 -2288.549438542384 1224.135898854573 -1267.4115384541544 0 0 0
4353 291 3 -1.5 -2243.482525213871 1226.0420953138475 -1243.6321891318066 0 0 0
4362 291 12 0 -2223.944591521289 1258.5015477006036 -1206.9007737853246 0 0 0
4088 273 8 0 -1159.8961970493922 1231.067754458622 -1265.0732635031152 0 0 0
4081 273 1 0 -1150.9563888097246 1265.432935140577 -1248.622150509984 0 0 0
5630 376 5 0 -964.7328881440469 1219.9078446298442 -1264.6523081317537 0 0 0
4175 279 5 0 -739.872271957509 1213.128165655865 -1231.7236054373516 0 0 0
5375 359 5 0 -619.4372772843279 1250.8138174978255 -1224.8983535575376 0 0 0
4265 285 5 0 -568.5652592114035 1246.9498595548366 -1254.0841907242805 0 0 0
5381 359 11 1 -382.58555458683236 1203.3906302435664 -1265.8129228894752 0 0 0
5379 359 9 0 -325.61633650441826 1237.6122338983014 -1269.2217388466183 0 0 0
5385 359 15 0 -266.03889983832636 1225.7245556209987 -1241.6006805725576 0 0 0
4232 283 2 0 -1891.5232969785202 1327.4627514306744 -1230.8582414111056 0 0 0
4234 283 4 0 -1853.566667362672 1316.9027064827867 -1250.4461142817593 0 0 0
4268 285 8 0 -599.1348971715748 1302.732852859741 -1251.101752981277 0 0 0
5376 359 6 -0.5 -292.59747506888135 1280.404929346491 -1267.1675680422848 0 0 0
5384 359 14 -1.5 -257.8132967000789 1298.7046946053715 -1246.4996489775203 0 0 0
1156 78 1 0 -1449.3729739983444 -1245.2692916172755 -1135.4442890670232 0 0 0
3770 252 5 0 -2015.1374265809907 -1087.130490923348 -1143.7360308727239 0 0 0
3773 252 8 0 -2064.495921745804 -1019.5754087447094 -1161.0511042571861 0 0 0
3766 252 1 0 -2077.6121062179877 -956.0068546208619 -1148.1816964722668 0 0 0
2664 178 9 0 -18.49750340792199 -760.731779425616 -1193.4102493486746 0 0 0
5533 369 13 -0.5 -2658.819115283035 -715.9374946691728 -1150.2966412909268 0 0 0
2661 178 6 -0.5 -3.6400956751357842 -711.3902688265139 -1181.0608941214875 0 0 0
1612 108 7 2 -1391.0279246032808 -603.4339372783082 -1183.624593943375 0 0 0
1814 121 14 -1.5 -2226.9065675519555 -529.1937578401862 -1163.2852985919967 0 0 0
1616 108 11 1 -1346.7852577283534 -579.6005783352888 -1163.5106468582453 0 0 0
1614 108 9 0 -1298.249457516626 -547.1283559857999 -1126.2929913428109 0 0 0
923 62 8 0 -999.3945882719919 -577.0865676067331 -1184.3322738471825 0 0 0
1620 108 15 0 -1266.0529181727559 -498.9842391696356 -1142.4738263441484 0 0 0
1607 108 2 0 -1221.921600783019 -468.9584200776915 -1168.165891842466 0 0 0
245 17 5 0 -1265.271812148396 -405.39103992158863 -1189.1088751006005 0 0 0
1609 108 4 0 -1181.5269097229568 -447.6736225460398 -1173.0842409014265 0 0 0
5433 363 3 -1.5 -423.3966288870508 -75.01665652045682 -1159.6731702683408 0 0 0
3122 209 2 0 -773.3976808486651 -13.08326040311884 -1126.5003211164003 0 0 0
5443 363 13 -0.5 -443.2697663527854 -44.985666330516715 -1183.3141231029413 0 0 0
647 44 2 0 -118.87091244888926 -35.02940226352396 -1127.1127823543384 0 0 0
3128 209 8 0 -1102.2376595361595 72.08968551338874 -1195.9578442618179 0 0 0
3124 209 4 0 -763.3422114112026 21.63719724606651 -1180.2425099773327 0 0 0
659 44 14 -1.5 -123.88312051003744 53.11010625194862 -1144.34927383764 0 0 0
651 44 6 -0.5 -132.24009185554237 51.676703374717874 -1188.3005873285285 0 0 0
991 67 1 0 -1227.737272367243 128.01511874421334 -1199.5397167453164 0 0 0
1003 67 13 -0.5 -1049.6072852555988 76.23941331564401 -1172.753237662453 0 0 0
993 67 3 -1.5 -1024.960401256644 103.85336594346467 -1151.0224144695392 0 0 0
998 67 8 0 -1217.18287846508 154.21481407233307 -1156.736199098182 0 0 0
995 67 5 0 -1132.7742438625705 176.52597434019464 -1131.6554945104574 0 0 0
1291 87 1 0 -1284.8424964795 267.61581505839507 -1145.0682339339644 0 0 0
1711 115 1 0 -539.9171613728421 347.51212354492145 -1130.9557831221925 0 0 0
1718 115 8 0 -523.0908533389397 326.0680776224529 -1183.3548399973488 0 0 0
1064 71 14 -1.5 -385.6903145487728 432.5760618475675 -1164.3344954694971 0 0 0
1721 115 11 1 -289.03691054038126 427.99036093555287 -1183.5488583673607 0 0 0
1063 71 13 -0.5 -777.635513702102 462.76592373694183 -1197.6499060344663 0 0 0
2386 160 1 0 -780.1331909528321 463.8906191492889 -1139.4790429982595 0 0 0
1059 71 9 0 -463.7130317761664 479.0197316347831 -1191.5607293759012 0 0 0
1056 71 6 -0.5 -418.96574983556536 460.7928579870771 -1167.8795102316733 0 0 0
1719 115 9 0 -233.35907105600668 458.61332196586204 -1155.5909335967808 0 0 0
1725 115 15 0 -180.58680391437707 475.48260170101776 -1182.098000622822 0 0 0
1716 115 6 -0.5 -185.16718998101396 460.40943620278233 -1129.4658251336655 0 0 0
1712 115 2 0 -113.10371241526136 489.3847606473608 -1194.6969964330538 0 0 0
1714 115 4 0 -60.01626625195368 505.4919736711348 -1189.353565944659 0 0 0
5161 345 1 0 -2340.204326063973 678.4964053394642 -1141.4377634303114 0 0 0
4691 313 11 1 -2714.5702293254744 817.5578248714013 -1157.4146257279606 0 0 0
4663 311 13 -0.5 -1382.6586449776446 1031.8222033081545 -1137.3037991620458 0 0 0
4653 311 3 -1.5 -1343.0312194038765 1017.1223632809091 -1129.416841635112 0 0 0
4662 311 12 0 -1300.885675245836 1038.916849895159 -1126.8568431686126 0 0 0
4660 311 10 1 -1239.033002885764 1031.6313168638478 -1138.5393743943857 0 0 0
4093 273 13 -0.5 -1195.1178299737185 1018.9019378399297 -1183.5790443825158 0 0 0
4657 311 7 2 -1179.6220221792287 1040.4460037626918 -1151.5826539793331 0 0 0
4661 311 11 1 -1128.0891807705952 1042.7983225266478 -1164.4695704901073 0 0 0
4659 311 9 0 -1062.0514012055667 1039.1492541583568 -1162.1911832789995 0 0 0
4656 311 6 -0.5 -1009.9747751061528 1042.7404235784036 -1177.4933237515972 0 0 0
4083 273 3 -1.5 -1174.4286193196574 1055.7882667681702 -1191.4100028050657 0 0 0
4665 311 15 0 -1033.7986709869258 1074.2916310411924 -1150.508609772583 0 0 0
4652 311 2 0 -987.1465697732386 1100.1129298437036 -1157.5039050628147 0 0 0
4664 311 14 -1.5 -976.9940194732878 1065.33009692312 -1195.8782894791198 0 0 0
4654 311 4 0 -933.3813487339847 1107.8968503870594 -1163.817115627689 0 0 0
4243 283 13 -0.5 -2256.1871713839373 1126.691226862227 -1189.8817530502886 0 0 0
4233 283 3 -1.5 -2216.467244697972 1141.9674963758794 -1183.6247513890116 0 0 0
4242 283 12 0 -2201.9598607390417 1187.398499296794 -1181.7775360226951 0 0 0
5628 376 3 -1.5 -968.1256883487034 1138.401333571935 -1178.3958241725875 0 0 0
5637 376 12 0 -923.0321942257362 1156.4565374564177 -1170.449513710944 0 0 0
4183 279 13 -0.5 -838.3702833771129 1128.297115552732 -1199.5712971330145 0 0 0
5635 376 10 1 -859.7244431318553 1149.5497814407868 -1178.2685871684278 0 0 0
5632 376 7 2 -800.8627290662798 1137.8899121482293 -1194.483911867726 0 0 0
4182 279 12 0 -763.9692769792476 1158.4319673845046 -1172.0277320388839 0 0 0
4180 279 10 1 -717.8287994058101 1154.9084212022617 -1125.7996904496554 0 0 0
4905 327 15 0 -502.290148694263 1136.709828832608 -1169.3413685566275 0 0 0
4270 285 10 1 -470.39154203863643 1192.4086108388826 -1195.3765784698721 0 0 0
4235 283 5 0 -2267.0409049439622 1223.4258762659056 -1198.8577217795016 0 0 0
4240 283 10 1 -2156.313523887455 1232.299909594193 -1174.4295358147438 0 0 0
4237 283 7 2 -2105.3826647307847 1266.7431082667244 -1166.12336628814 0 0 0
4891 327 1 0 -801.9003700686353 1229.441601296906 -1169.341309833688 0 0 0
5629 376 4 0 -542.7541070302616 1241.1960655661312 -1196.6544413394247 0 0 0
4267 285 7 2 -417.3617179370322 1203.1695759661318 -1164.5673159589978 0 0 0
4271 285 11 1 -369.1588021268724 1208.1382105311748 -1141.133369839191 0 0 0
4355 291 5 0 -2320.6395417881618 1308.7213916278731 -1138.5010666470062 0 0 0
4360 291 10 1 -2170.771269932732 1277.8883080952503 -1178.9746156928102 0 0 0
4357 291 7 2 -2124.1120931814626 1297.0382571784937 -1143.1676602983114 0 0 0
4241 283 11 1 -2059.0182103526968 1292.424597869005 -1156.065286315952 0 0 0
4239 283 9 0 -2006.3771843379361 1329.828902663277 -1147.4831693358658 0 0 0
4245 283 15 0 -1955.980385200561 1322.3224167787018 -1175.6042345202795 0 0 0
4236 283 6 -0.5 -1953.9683307160042 1346.9271839447633 -1150.6391510662302 0 0 0
4244 283 14 -1.5 -1912.7044526026646 1342.204822476861 -1135.7950421399928 0 0 0
5371 359 1 0 -720.6255498032815 1285.170995316362 -1126.5537887920168 0 0 0
5378 359 8 0 -668.004748980731 1275.999971541773 -1183.410085365071 0 0 0
5372 359 2 0 -206.32905930920666 1294.8369466191054 -1199.3733071821955 0 0 0
5374 359 4 0 -156.90710978935954 1314.4232903172426 -1184.4499045368275 0 0 0
1160 78 5 0 -1516.8923776511915 -1310.6650997343459 -1059.7374225648607 0 0 0
1163 78 8 0 -1475.349007451573 -1294.8318648672741 -1088.6619061067327 0 0 0
5523 369 3 -1.5 -2630.1193300583623 -722.1966657887912 -1119.0356216700714 0 0 0
5532 369 12 0 -2605.5204952263302 -690.6423683195519 -1089.1254697022714 0 0 0
5528 369 8 0 -2711.906679187501 -602.9295694799415 -1050.279574520839 0 0 0
5525 369 5 0 -2667.958162217964 -648.1342352390014 -1064.5127516257069 0 0 0
5530 369 10 1 -2552.8563826839672 -656.1793307080736 -1070.6355106177743 0 0 0
928 62 13 -0.5 -997.7495638865237 -668.1269957742651 -1084.972847318195 0 0 0
918 62 3 -1.5 -981.0658115144905 -647.9707602888174 -1050.5991353285806 0 0 0
920 62 5 0 -980.7653320908664 -572.8955248919023 -1106.480455127674 0 0 0
254 17 14 -1.5 -926.296870595478 -549.4102445998939 -1059.3118325161859 0 0 0
246 17 6 -0.5 -969.1334302717186 -538.2440015613116 -1057.5762164975467 0 0 0
253 17 13 -0.5 -1313.363602100427 -502.5173445308329 -1124.8583513243457 0 0 0
243 17 3 -1.5 -1293.3214775139002 -465.8152340226001 -1118.481574320024 0 0 0
1611 108 6 -0.5 -1280.2660047165446 -507.3998233532572 -1092.0787159691213 0 0 0
1619 108 14 -1.5 -1250.3255021095974 -476.767979348931 -1079.8806313971459 0 0 0
252 17 12 0 -1245.5327412836482 -451.5664030288566 -1123.0477325602528 0 0 0
250 17 10 1 -1179.6508678542655 -462.2416112988541 -1122.8768585130288 0 0 0
247 17 7 2 -1120.3195171090865 -475.62212813331286 -1110.7756298120682 0 0 0
251 17 11 1 -1070.986461486395 -490.00780536396644 -1093.9104874362642 0 0 0
249 17 9 0 -1010.4922878430583 -514.7527540464188 -1082.945522485761 0 0 0