LAMMPS data file via write_data, version 27 Jun 2024, timestep = 29440000, units = real

5730 atoms
15 atom types
5671 bonds
16 bond types
5730 angles
15 angle types

-3000 3000 xlo xhi
-1500 1500 ylo yhi
-1500 1500 zlo zhi

Masses

1 241.19
2 73.54000000000001
3 330.71
4 235.16
5 68.06999999999999
6 353.53
7 223.38
8 41.1
9 216.91
10 155.15
11 147.32
12 264.65
13 300.8
14 326.05
15 85.20999999999999

Pair Coeffs # lj/cut/coul/debye/gpu

1 0.71637 40.7505
2 0.665709 48.1397
3 1.15033 39.2216
4 0.726774 43.8077
5 0.514724 53.3428
6 1.17127 41.7847
7 1.2256 38.5601
8 0.675431 54.5696
9 1.26117 43.78
10 0.939007 42.5209
11 0.960667 41.1825
12 1.30988 48.0761
13 1.36645 37.7114
14 1.35529 39.2179
15 0.592003 47.2602

Bond Coeffs # harmonic

1 0.003 59.228
2 0.008 56.48
3 0.001 69.324
4 3.207 42.88
5 0.11 49.807
6 0.002 74.968
7 0.001 91.635
8 0.145 54.383
9 2.709 44.406
10 1.71 61.679
11 1.625 54.051
12 0.207 66.185
13 0.002 64.76
14 0.079 63.886
15 0.2 40
16 0.2 40

Angle Coeffs # harmonic

1 11.427 158.273
2 50.464 132.042
3 8.207 156.514
4 92.705 149.394
5 100 174.44
6 3.15 145.53
7 48.938 159.031
8 17.401 129.945
9 15.735 56.441
10 60 172.254
11 60.285 168.396
12 11.83 99.091
13 150 107.995
14 27.746 149.925
15 7.483 160.775

Atoms # full

3767 252 2 0 -1520.2436539209282 -1303.5413487867759 -1464.4334664657786 0 0 0
3769 252 4 0 -1472.4701365478181 -1299.5754521007298 -1479.5672149190827 0 0 0
3776 252 11 1 -1720.4281886520102 -1266.6437819345942 -1458.0016862001996 0 0 0
3774 252 9 0 -1662.798180423643 -1266.2851518526245 -1489.8002588792724 0 0 0
3780 252 15 0 -1610.6685288743397 -1270.7198803574515 -1461.7000464495352 0 0 0
2551 171 1 0 -1431.3619781715638 -1210.0432338968842 -1439.5849115158346 0 0 1
2558 171 8 0 -1367.274834242258 -1220.8621564972066 -1459.6036065611945 0 0 1
2555 171 5 0 -1306.7056185373742 -1190.4314964961522 -1439.3655970495672 0 0 1
1095 73 15 0 -2523.1772887731854 -1002.1532096873972 -1448.0671886993619 0 0 1
1814 121 14 -1.5 -2832.936824248393 -628.1839420738536 -1467.695191783991 0 0 0
1815 121 15 0 -2754.35330885423 -603.3260630813174 -1481.800267548153 0 0 0
1802 121 2 0 -2709.5735078599523 -641.1865956517566 -1495.111506193523 0 0 0
1804 121 4 0 -2646.548455955778 -658.2414359535718 -1493.9266646536537 0 0 0
5704 381 4 0 -398.7537272592982 -670.2377010685058 -1467.9688896610903 0 0 1
1806 121 6 -0.5 -2811.1931854626205 -589.2743310286933 -1473.4843322453805 0 0 0
1809 121 9 0 -2776.946152225635 -550.4172480457325 -1455.5700977745332 0 0 0
2582 173 2 0 -1656.526330608293 -383.37178003468244 -1438.0577514955085 0 0 1
965 65 5 0 -2719.869619216419 -327.15007794957944 -1459.1742604396245 0 0 0
2595 173 15 0 -1613.624125705687 -327.39728636261196 -1484.6369046671189 0 0 1
2586 173 6 -0.5 -1590.7140468131122 -300.18699203612846 -1453.9886011263645 0 0 1
2926 196 1 0 -2737.1245900125036 -256.13257724127175 -1455.586495753982 0 0 0
2589 173 9 0 -1571.506269422414 -277.45958652643753 -1499.9869859478626 0 0 1
1062 71 12 0 -751.5342983041505 150.63251894619785 -1428.7037130504393 0 0 0
4929 329 9 0 -1866.9399755064508 486.37003680996526 -1439.359574232297 0 0 0
5281 353 1 0 -2752.404183965215 690.8943108792616 -1496.0008608140784 0 0 1
4480 299 10 1 -2081.4451389918904 1098.4616430197245 -1474.6043080754278 0 0 0
4477 299 7 2 -2035.51041032675 1101.4290677212214 -1434.0999446204673 0 0 0
4364 291 14 -1.5 -1996.1424964638807 1100.842588138044 -1442.958451577701 0 0 0
4365 291 15 0 -2065.3039256371526 1141.5225887007543 -1446.2097068393075 0 0 0
2403 161 3 -1.5 -2263.0070192925045 1401.1687361853287 -1441.571742602526 0 -1 0
2413 161 13 -0.5 -2250.7267081509726 1360.8225919007177 -1447.7506834217359 0 -1 0
3766 252 1 0 -2015.4159970341227 -1356.183522411604 -1373.3660446832664 0 0 0
2554 171 4 0 -997.0545284584316 -1411.9166090812553 -1391.7737786506398 0 0 1
3773 252 8 0 -1991.1280722029385 -1315.3204741633094 -1384.1251658162835 0 0 0
3770 252 5 0 -1923.3521067213605 -1293.4964177170452 -1389.2331629674934 0 0 0
3777 252 12 0 -1862.7090121676617 -1291.5971226073468 -1350.9941179443906 0 0 0
3775 252 10 1 -1813.9290310673837 -1273.4155712273791 -1391.8446126501708 0 0 0
3772 252 7 2 -1762.429421413346 -1265.3241908220605 -1424.4648315100037 0 0 0
2562 171 12 0 -1256.6367608882354 -1136.9491897622954 -1381.3160444808057 0 0 1
2560 171 10 1 -1203.9695691140075 -1165.6333265085216 -1377.7314049756112 0 0 1
2557 171 7 2 -1153.0604648031097 -1196.3658795191468 -1361.6039980282758 0 0 1
2553 171 3 -1.5 -1285.0843441419277 -1095.951458661103 -1383.9928004689193 0 0 1
2563 171 13 -0.5 -1320.2338643469036 -1084.7505620854229 -1362.2720927494975 0 0 1
1082 73 2 0 -2513.8077428872393 -1005.6124681087429 -1375.0816235013256 0 0 1
5521 369 1 0 -2592.2366821858486 -565.7912154533511 -1410.704717232034 0 0 0
5528 369 8 0 -2612.555438975189 -563.8187785178599 -1371.1404412810364 0 0 0
1811 121 11 1 -2751.719848034358 -505.13453088707337 -1413.2282248163947 0 0 0
1807 121 7 2 -2724.833069212044 -464.08827527552063 -1389.8628927095024 0 0 0
973 65 13 -0.5 -2731.271937293199 -429.57026442684554 -1370.2293463047024 0 0 0
5533 369 13 -0.5 -2726.8970385428406 -438.9090603118375 -1356.3625649447931 0 0 0
963 65 3 -1.5 -2742.5495102233513 -389.96803806697005 -1356.6008510452393 0 0 0
1810 121 10 1 -2699.694479451855 -419.70877499931635 -1354.70418107689 0 0 0
2584 173 4 0 -1703.4070383945018 -399.9926870476189 -1418.7696680302645 0 0 1
972 65 12 0 -2713.998093445238 -350.5955962542061 -1359.5675276852571 0 0 0
1808 121 8 0 -2744.3935792233287 -237.83308800051466 -1382.0697423394386 0 0 0
2594 173 14 -1.5 -1617.47409407683 -297.9776023913667 -1418.3625809250666 0 0 1
1801 121 1 0 -2812.131870016477 -224.37215859010985 -1395.1361537916769 0 0 0
2933 196 8 0 -2690.7252384778944 -216.4410581492499 -1417.6093831322669 0 0 0
2930 196 5 0 -2611.199307345645 -223.27497665421276 -1391.9566503730537 0 0 0
1063 71 13 -0.5 -789.6295487143079 81.56224843743237 -1395.1240759018142 0 0 0
1053 71 3 -1.5 -759.3686306129226 101.66078614000571 -1416.5102231220621 0 0 0
1060 71 10 1 -715.0428538914115 204.06617171239196 -1411.2490493714367 0 0 0
1723 115 13 -0.5 -673.8352510077228 285.8535216068565 -1396.8167820249037 0 0 0
1057 71 7 2 -671.3769323707891 244.22536491895966 -1394.9047098463611 0 0 0
1713 115 3 -1.5 -655.5246563582331 277.9259618040198 -1358.480698767414 0 0 0
1061 71 11 1 -638.9472931970117 283.3816385382476 -1376.3051281335258 0 0 0
1059 71 9 0 -588.144375935636 327.7340245314892 -1368.7894588809697 0 0 0
1056 71 6 -0.5 -557.9121068733948 373.84452389219285 -1377.614161927079 0 0 0
1411 95 1 0 -1408.4847299010967 448.27294813289075 -1404.0951544855707 0 0 0
1064 71 14 -1.5 -533.1765153249308 404.6938110023501 -1358.1478678973365 0 0 0
4926 329 6 -0.5 -1874.533803146068 514.7273999969299 -1395.0256924837593 0 0 0
4934 329 14 -1.5 -1867.5576031129606 516.2501370425426 -1351.6372791116269 0 0 0
4935 329 15 0 -1810.9193306856555 515.1174283979843 -1394.165710174338 0 0 0
1415 95 5 0 -1514.4649462566908 485.4894685357464 -1363.9625613283672 0 0 0
1418 95 8 0 -1437.207811427837 488.2934525781096 -1396.9151039349101 0 0 0
1716 115 6 -0.5 -428.3263925761514 517.6168639474485 -1367.7337136023893 0 0 0
1724 115 14 -1.5 -398.4844477636601 551.0431160200786 -1366.281337740339 0 0 0
1414 95 4 0 -1852.5515769078502 789.6590737307845 -1361.179424303673 0 0 0
4244 283 14 -1.5 -2061.0406668849746 1071.6690281880876 -1423.7891780181617 0 0 0
4236 283 6 -0.5 -2048.242109563961 1081.4655253787664 -1382.8879239297212 0 0 0
4356 291 6 -0.5 -2027.0464474264031 1108.636366380844 -1412.2684713923181 0 0 0
4481 299 11 1 -2000.0721445757047 1109.2783784825845 -1394.957961796768 0 0 0
4359 291 9 0 -2049.6076681736204 1137.011907707674 -1374.421009493768 0 0 0
4264 285 4 0 -312.7551310856745 1189.8666562745768 -1398.054220582513 0 0 0
2405 161 5 0 -2286.3761799128197 1345.6518721185764 -1355.3095447895798 0 -1 0
2412 161 12 0 -2278.2112265585433 1425.1496924472824 -1402.9552520888528 0 -1 0
2410 161 10 1 -2295.1896628265895 1473.4013571121814 -1365.1938413390144 0 -1 0
2411 161 11 1 -2316.2724441785585 -1443.7535595741904 -1286.733674484835 0 0 0
2407 161 7 2 -2308.0036257172687 -1481.8951814375014 -1324.5823481840619 0 0 0
2552 171 2 0 -1000.6707736256127 -1364.1137861226987 -1339.4442569345429 0 0 1
3768 252 3 -1.5 -1882.3179092919625 -1314.055344450431 -1310.0875175839813 0 0 0
2565 171 15 0 -1034.429336548251 -1290.967879079803 -1309.559941207834 0 0 1
2561 171 11 1 -1109.0368958949937 -1224.6409525578267 -1345.4946302311077 0 0 1
2559 171 9 0 -1049.8420643459813 -1242.6758144214064 -1324.553830169346 0 0 1
2556 171 6 -0.5 -998.1993398028198 -1260.571345831022 -1328.315988600178 0 0 1
2564 171 14 -1.5 -961.022833784952 -1271.4702943835543 -1307.4233557974997 0 0 1
1084 73 4 0 -2539.0704663569227 -1008.8657810119623 -1323.7200098321532 0 0 1
5525 369 5 0 -2642.7761807718684 -532.6772160422697 -1339.9186897933068 0 0 0
916 62 1 0 -798.9903870417307 -480.6590791134042 -1322.089923176512 0 0 0
5523 369 3 -1.5 -2709.0909716277556 -415.1138541564061 -1325.7868123980495 0 0 0
5532 369 12 0 -2676.02674222846 -428.0868266123655 -1286.4803641847977 0 0 0
1812 121 12 0 -2675.0689526394276 -374.169886845641 -1318.5939174434498 0 0 0
970 65 10 1 -2657.928742843788 -326.55118200294214 -1337.669348165774 0 0 0
1803 121 3 -1.5 -2636.2143779952567 -353.7594228352279 -1307.2411740486407 0 0 0
967 65 7 2 -2611.9517617760293 -304.0446117627053 -1304.3120976673288 0 0 0
1813 121 13 -0.5 -2604.607165656276 -336.155183209943 -1330.5639977258247 0 0 0
2938 196 13 -0.5 -2585.8601661879366 -325.2426685559024 -1326.0771406528743 0 0 0
1805 121 5 0 -2731.4713540553444 -292.13038748248886 -1329.8038323282265 0 0 0
2928 196 3 -1.5 -2562.6713000962345 -295.5437863430711 -1306.439831313275 0 0 0
971 65 11 1 -2567.925146125285 -283.39979485627987 -1280.9870768775052 0 0 0
2937 196 12 0 -2550.8040968351347 -247.4898119225489 -1316.0421100042834 0 0 0
2935 196 10 1 -2502.392895834874 -208.49521266135523 -1319.4944263756615 0 0 0
975 65 15 0 -2503.6125631345217 -191.82277886073842 -1276.3337227428922 0 0 0
2932 196 7 2 -2459.976144900915 -165.1759427009802 -1316.345033865082 0 0 0
974 65 14 -1.5 -2447.885684468648 -192.19493199975398 -1290.8393175625597 0 0 0
962 65 2 0 -2506.3667409574136 -108.22410614977542 -1279.3514386213928 0 0 0
2936 196 11 1 -2417.245521891889 -131.95625845536964 -1310.681464300097 0 0 0
2934 196 9 0 -2375.739820954489 -82.63560738074295 -1310.1150453667542 0 0 0
2931 196 6 -0.5 -2327.7518923528683 -58.173211953448345 -1314.1132521517527 0 0 0
2939 196 14 -1.5 -2290.094284801489 -44.296567424758614 -1294.7764475806957 0 0 0
1722 115 12 0 -626.0071656746921 303.6650142139488 -1328.2486797275083 0 0 0
1720 115 10 1 -576.0501084397532 344.37954738430756 -1324.42858720743 0 0 0
1413 95 3 -1.5 -1596.7912869771076 433.9327823645819 -1296.1401676331311 0 0 0
1423 95 13 -0.5 -1574.2263501730577 401.2871323567537 -1279.6000568399647 0 0 0
1065 71 15 0 -583.9515779672666 392.20886352286476 -1323.494884386433 0 0 0
1717 115 7 2 -530.6559045783094 385.8095663607534 -1324.7115409521246 0 0 0
1721 115 11 1 -491.5708120462822 421.91700029699905 -1333.407048666121 0 0 0
1422 95 12 0 -1597.6134905928616 482.8438814616465 -1294.1103084279605 0 0 0
1719 115 9 0 -450.5225501171076 473.2593564206231 -1344.4600426723534 0 0 0
1725 115 15 0 -385.8679430861651 496.98291750858704 -1317.4275932413075 0 0 0
4922 329 2 0 -1798.9331451181479 531.02993651582 -1311.5436798389921 0 0 0
1417 95 7 2 -1666.3451075345063 584.5291718690423 -1305.7490463577085 0 0 0
1420 95 10 1 -1628.29810205733 536.4644536751827 -1298.6696456908433 0 0 0
1419 95 9 0 -1748.4954226534855 666.2807029842089 -1282.4557111673118 0 0 0
1421 95 11 1 -1700.1642305004061 627.6795542028372 -1302.7445563709525 0 0 0
1425 95 15 0 -1762.7859892109998 726.2468010114943 -1301.1552014999504 0 0 0
1412 95 2 0 -1801.6711462764467 767.1318518001224 -1324.534775571374 0 0 0
4239 283 9 0 -2054.2913137397854 1110.089158542834 -1337.1382357965606 0 0 0
4245 283 15 0 -2003.3444629873918 1078.9401803822275 -1349.8545763786478 0 0 0
4232 283 2 0 -1958.9459747870949 1059.0240578246992 -1349.0246291963867 0 0 0
4479 299 9 0 -1970.9329887466392 1117.879613256804 -1334.5445690935903 0 0 0
4234 283 4 0 -1911.1351277181916 1052.5084637462107 -1347.1152378831744 0 0 0
4485 299 15 0 -1920.3605557763806 1090.7285994087702 -1293.0983121889042 0 0 0
4357 291 7 2 -2110.399346137261 1173.9788993807765 -1279.7480540550685 0 0 0
4241 283 11 1 -2085.3512461783807 1133.991227246405 -1283.3681008181106 0 0 0
4361 291 11 1 -2090.6591782194178 1154.5361177255518 -1325.621196448038 0 0 0
4476 299 6 -0.5 -1958.7837235187587 1138.192951965115 -1287.301181285021 0 0 0
4262 285 2 0 -325.39614908732136 1219.6169550699176 -1349.9935636514 0 0 0
4275 285 15 0 -332.09450148569675 1239.2861824814224 -1281.5173233185717 0 0 0
2401 161 1 0 -2385.597780519158 1288.0311812266757 -1296.0989685017923 0 -1 0
2408 161 8 0 -2336.0052052487163 1294.068279234419 -1311.667462360644 0 -1 0
2409 161 9 0 -2319.1204817110106 -1392.3020454985513 -1245.2864374592277 0 0 0
2415 161 15 0 -2323.5098432825985 -1330.343876086418 -1254.7388542242459 0 0 0
3778 252 13 -0.5 -1891.45462242167 -1297.0521224654199 -1271.6040707126092 0 0 0
2402 161 2 0 -2353.389105256524 -1251.2097767048197 -1273.3325314894644 0 0 0
2404 161 4 0 -2376.3616241977716 -1193.6363670404032 -1262.3186461017544 0 0 0
923 62 8 0 -810.0038406504613 -493.7371714983454 -1262.7425839919013 0 0 0
5530 369 10 1 -2660.198293005407 -433.2757948308716 -1226.3172278310972 0 0 0
646 44 1 0 -131.6033632086988 -314.4800174470648 -1245.4436896016175 0 0 0
969 65 9 0 -2519.7313196828723 -245.56900200462962 -1259.061578846552 0 0 0
653 44 8 0 -179.00528932692225 -265.3936723303978 -1253.0443001043818 0 0 0
966 65 6 -0.5 -2474.062709966763 -217.35083142889778 -1265.1033168506667 0 0 0
650 44 5 0 -204.10309267983575 -215.4995785931791 -1223.94080907859 0 0 0
648 44 3 -1.5 -158.04768912735608 -81.88179328703391 -1234.2297097448802 0 0 0
658 44 13 -0.5 -138.75949129104902 -81.80049378110641 -1272.6886541406311 0 0 0
964 65 4 0 -2503.080559570215 -59.17659431543115 -1261.8563378193614 0 0 0
2940 196 15 0 -2332.0769671595162 -52.49110190798672 -1253.480229101109 0 0 0
1715 115 5 0 -625.2957298498769 256.39539186105185 -1258.5457469859502 0 0 0
3016 202 1 0 -811.4276489321675 450.7632288829371 -1209.1462366292621 0 0 0
1054 71 4 0 -600.4122061878511 509.56620402906043 -1244.1254569316645 0 0 0
1052 71 2 0 -577.0576173717244 459.9363992350826 -1269.72514592009 0 0 0
4924 329 4 0 -1768.5611448964864 542.2921273767132 -1269.4993148119256 0 0 0
1712 115 2 0 -313.31570483601405 543.2847072272826 -1263.992082516208 0 0 0
1714 115 4 0 -281.441651561384 585.8655947912725 -1236.0418980778036 0 0 0
1424 95 14 -1.5 -1781.387065293632 719.5035017281707 -1209.8308170992416 0 0 0
1416 95 6 -0.5 -1777.9421804048109 697.1231211588122 -1247.6876690916313 0 0 0
4474 299 4 0 -1910.5923889668284 995.1523761197719 -1228.1735622070094 0 0 0
4472 299 2 0 -1923.6909793220973 1028.6435199235857 -1242.7638033147807 0 0 0
4360 291 10 1 -2130.535152926872 1193.2890889213431 -1224.5042372722462 0 0 0
4237 283 7 2 -2099.8390192175557 1156.5965026610988 -1236.4462921513793 0 0 0
4484 299 14 -1.5 -1960.8605217883794 1139.8508830819196 -1243.2496004907512 0 0 0
4351 291 1 0 -2361.9665517262188 1227.9912324647978 -1272.5295709938046 0 0 0
4358 291 8 0 -2301.9570078789093 1240.4113888040345 -1247.1572509306886 0 0 0
4185 279 15 0 -537.2479937809821 1237.433785835809 -1217.4057871721452 0 0 0
4172 279 2 0 -494.9841937371216 1240.4449570030833 -1231.600902207721 0 0 0
4174 279 4 0 -446.90002587996446 1228.0727293906334 -1206.9844102954855 0 0 0
4269 285 9 0 -358.85593835193225 1263.3251452456452 -1219.9120208775787 0 0 0
5381 359 11 1 -456.06245649247046 1277.6532147972052 -1205.8871592155292 0 0 0
5379 359 9 0 -393.42817979708667 1293.1835686432337 -1223.2976672842256 0 0 0
4266 285 6 -0.5 -306.23290119392595 1275.5385000214421 -1229.5257567620188 0 0 0
5384 359 14 -1.5 -310.6415096564032 1279.9685321698998 -1273.0632946246922 0 0 0
5376 359 6 -0.5 -348.82562846483603 1296.8466421374121 -1257.1534618556525 0 0 0
4274 285 14 -1.5 -269.068051881643 1276.5896896703516 -1253.9944189933315 0 0 0
4261 285 1 0 -709.1478060219946 1400.0187610004293 -1206.047996389467 0 0 0
3624 242 9 0 -205.37599698078245 -1457.10519704464 -1133.2692571002178 0 0 0
3621 242 6 -0.5 -163.6636932665967 -1469.9964579538316 -1164.9768365063373 0 0 0
3629 242 14 -1.5 -122.0004778342573 -1484.1672286281494 -1168.1754213775378 0 0 0
2406 161 6 -0.5 -2324.13143861634 -1364.7235772617532 -1196.8164505958464 0 0 0
2414 161 14 -1.5 -2319.284427757896 -1329.384007328482 -1170.5623600932192 0 0 0
3856 258 1 0 -605.800953266556 -1303.7594053603661 -1158.3025016381948 0 0 0
3863 258 8 0 -556.1020337942658 -1318.6463414629698 -1145.5607377213714 0 0 0
3628 242 13 -0.5 -449.8064610403543 -1299.8217144393966 -1179.867155248433 0 0 0
3618 242 3 -1.5 -442.30076520435824 -1309.980679425671 -1139.1902139167546 0 0 0
1606 108 1 0 -1512.2825192275143 -712.1167941280129 -1179.126053390171 0 0 0
1613 108 8 0 -1453.9856689687026 -684.0404192023162 -1136.8253518043296 0 0 0
2663 178 8 0 -193.46604577392725 -699.9619318739552 -1149.9657734636917 0 0 0
2656 178 1 0 -191.2600067072075 -648.9087799599107 -1151.9624332529554 0 0 0
243 17 3 -1.5 -1267.4355346865402 -532.4625772775433 -1129.185144821367 0 0 0
252 17 12 0 -1233.1495626990204 -498.2165122882644 -1139.6244672952384 0 0 0
250 17 10 1 -1174.7247569588537 -483.219080558531 -1157.4047316366962 0 0 0
1611 108 6 -0.5 -1130.5466407870574 -500.32138236461054 -1163.3884616803393 0 0 0
1619 108 14 -1.5 -1095.1566621870893 -500.8532282847916 -1190.8093891329877 0 0 0
247 17 7 2 -1114.4934112030628 -474.5731011546939 -1167.5618006666314 0 0 0
251 17 11 1 -1061.2988788000882 -471.514379610955 -1175.5422152198028 0 0 0
249 17 9 0 -994.8928831985838 -466.3307483592317 -1170.2897248217614 0 0 0
255 17 15 0 -937.81438002015 -503.54892266444057 -1139.1544729279171 0 0 0
928 62 13 -0.5 -953.6899810397422 -451.9273194969751 -1133.5445981615953 0 0 0
918 62 3 -1.5 -913.8061872181441 -465.74509511151194 -1127.9049337111387 0 0 0
5527 369 7 2 -2636.877163594011 -438.3286264373943 -1170.1231611386409 0 0 0
246 17 6 -0.5 -944.113471443484 -449.94077423717675 -1175.802485283579 0 0 0
254 17 14 -1.5 -903.0026655113978 -440.4076928539608 -1162.309314297282 0 0 0
920 62 5 0 -857.3336797104423 -446.75387110972116 -1194.1591979303425 0 0 0
3121 209 1 0 -1324.1138134242483 -189.08081548220642 -1167.508282574827 0 0 0
5431 363 1 0 -493.92627472320504 -187.85578161484906 -1150.0387487364471 0 0 0
657 44 12 0 -151.9388573267629 -115.12304917511085 -1196.671219672134 0 0 0
655 44 10 1 -121.54240913660969 -126.75911734473827 -1139.1661919106768 0 0 0
2927 196 2 0 -2319.5057368350053 -3.7365571923467393 -1158.2535344576067 0 0 0
1711 115 1 0 -648.1354790799767 186.3406380460776 -1130.6501731736062 0 0 0
1718 115 8 0 -622.016092638252 225.0566971602031 -1195.2691196615742 0 0 0
3023 202 8 0 -818.612318417346 442.8419244984774 -1160.176855870678 0 0 0
5164 345 4 0 -2022.8362345333605 926.7418935392153 -1186.359053362351 0 0 0
5162 345 2 0 -2011.8565737193833 927.7737078680635 -1130.5314130654453 0 0 0
4240 283 10 1 -2113.8711344756916 1182.2513218446643 -1181.981749033823 0 0 0
4180 279 10 1 -746.8827715712423 1166.0122344931394 -1127.6867842089341 0 0 0
4177 279 7 2 -695.8968914868539 1181.1454241620984 -1157.720699074183 0 0 0
4897 327 7 2 -654.1780773546346 1179.275297423706 -1140.5896011500408 0 0 0
4355 291 5 0 -2244.560590112959 1235.880325038883 -1190.7638223673375 0 0 0
4235 283 5 0 -2235.8644460146684 1268.102445837969 -1136.2959448365154 0 0 0
4362 291 12 0 -2157.0590599010943 1226.0466976606754 -1174.3004887980358 0 0 0
4353 291 3 -1.5 -2154.6386830377237 1258.531438586551 -1135.0095570085982 0 0 0
4242 283 12 0 -2124.8769140886493 1222.3468050381514 -1130.0172344724758 0 0 0
4181 279 11 1 -649.2851928052686 1200.7800809274277 -1178.7616581211055 0 0 0
4901 327 11 1 -611.3788829759023 1207.0700403663338 -1159.0937781057635 0 0 0
5373 359 3 -1.5 -666.1692933606156 1234.0547099862351 -1146.8423930328079 0 0 0
5639 376 14 -1.5 -634.8038911692558 1213.849385219205 -1139.8631992971618 0 0 0
5382 359 12 0 -627.6786405422506 1264.2184176404928 -1159.8147588159482 0 0 0
4273 285 13 -0.5 -665.9011391833216 1218.8238957740311 -1136.3297138413304 0 0 0
4179 279 9 0 -598.6911286883101 1238.3389109701477 -1189.6462677539005 0 0 0
4899 327 9 0 -550.3839794467309 1232.229296934124 -1171.2640109230224 0 0 0
5380 359 10 1 -568.9090733078875 1272.4839065675608 -1179.9889357853806 0 0 0
4272 285 12 0 -583.7825498300064 1250.4907967021854 -1127.41447317784 0 0 0
4270 285 10 1 -522.8999276408053 1264.1635292912626 -1144.543826954632 0 0 0
5377 359 7 2 -508.46277236683545 1271.1871371815746 -1193.0556750925853 0 0 0
4896 327 6 -0.5 -508.7249345704972 1266.8730279473887 -1185.3612282593606 0 0 0
4267 285 7 2 -464.1569022272613 1263.1415593520896 -1163.8497036927774 0 0 0
4905 327 15 0 -494.2908292562782 1228.0352486956392 -1133.9793706859448 0 0 0
4271 285 11 1 -415.44618947212496 1260.4370706516925 -1186.042738708723 0 0 0
4238 283 8 0 -2277.496916577285 1296.6440131929237 -1178.7712456850911 0 0 0
4231 283 1 0 -2324.1636898230367 1322.4175055900423 -1180.148882739831 0 0 0
4171 279 1 0 -949.47458503827 1336.1132922335655 -1141.430051692198 0 0 0
4178 279 8 0 -917.7978997615161 1283.766532283673 -1133.2835154097413 0 0 0
4265 285 5 0 -640.7681738580899 1315.694256283322 -1175.465077748568 0 0 0
4176 279 6 -0.5 -565.1423910615682 1281.180241155145 -1179.37718470049 0 0 0
4184 279 14 -1.5 -529.0422181679821 1305.3760786824478 -1187.8991486734694 0 0 0
4904 327 14 -1.5 -491.3199562281686 1307.5225970663018 -1187.469162573077 0 0 0
5385 359 15 0 -337.7335763183309 1333.694928887986 -1187.1510942099178 0 0 0
4268 285 8 0 -653.9004718217761 1381.252066387892 -1199.7737479417021 0 0 0
5372 359 2 0 -320.14580920057233 1364.9757779326605 -1160.1099981251741 0 0 0
5374 359 4 0 -317.09202542520296 1407.6618992653775 -1125.4951963521676 0 0 0
3619 242 4 0 -75.68022673811237 1408.7201360286815 -1143.2084442719224 0 -1 0
3617 242 2 0 -105.98713084802108 1457.519562211815 -1134.9849519212662 0 -1 0
3626 242 11 1 -264.1908517068567 -1436.3607536055529 -1112.1539427242496 0 0 0
3630 242 15 0 -144.88970872458162 -1492.346510492163 -1116.2990970370233 0 0 0
3622 242 7 2 -312.16584393334466 -1410.9473643038668 -1106.3426079045641 0 0 0
3625 242 10 1 -363.3717018498031 -1377.4922050385521 -1107.4431794734576 0 0 0
3868 258 13 -0.5 -325.42508035022223 -1360.2737500861256 -1115.4593795642404 0 0 0
3860 258 5 0 -480.7091368598821 -1341.9554899697202 -1115.5924574624762 0 0 0
3620 242 5 0 -457.69873720467285 -1347.0162339865544 -1053.6325438992264 0 0 0
3867 258 12 0 -381.30340686575937 -1329.9484804294307 -1060.3983541912773 0 0 0
3627 242 12 0 -410.79424095489156 -1339.629140123154 -1117.3439407705125 0 0 0
3858 258 3 -1.5 -352.1922586710632 -1330.390045806102 -1101.1709840962108 0 0 0
1318 88 13 -0.5 -173.04970062234958 -855.7679439869123 -1076.676698271803 0 0 0
2667 178 12 0 -80.49570364306254 -838.0754798476282 -1083.3919077108537 0 0 0
1618 108 13 -0.5 -1344.5643060489417 -773.6777465939456 -1091.7547348582643 0 0 0
2660 178 5 0 -172.73959139477097 -763.1322527854937 -1110.7733143420362 0 0 0
2665 178 10 1 -25.388448028562635 -814.5151480372068 -1108.396426453802 0 0 0
1610 108 5 0 -1384.1493359930219 -681.9326949285792 -1119.7744900378432 0 0 0
1608 108 3 -1.5 -1316.951684550211 -743.0700664858264 -1079.6174909604454 0 0 0
1617 108 12 0 -1318.1518349628145 -693.1821267481159 -1078.1016962995748 0 0 0
1310 88 5 0 -133.78770497780906 -729.3327774802194 -1071.0095347586914 0 0 0
1615 108 10 1 -1287.5874718731295 -638.033144855876 -1079.2090116310694 0 0 0
1313 88 8 0 -112.93002520940853 -655.4644971653157 -1089.0708669193082 0 0 0
1306 88 1 0 -55.82658042353744 -606.4404313336379 -1085.581958714459 0 0 0
253 17 13 -0.5 -1275.1096906878947 -559.7397976524311 -1096.979931698839 0 0 0
1612 108 7 2 -1250.3375506731788 -591.1756108578038 -1088.4026476642698 0 0 0
1616 108 11 1 -1212.8455956493951 -554.4803685184735 -1097.294878703437 0 0 0
5529 369 9 0 -2582.722793282092 -475.45914930042625 -1071.1841490014385 0 0 0
1614 108 9 0 -1160.7967189809274 -520.3553425591149 -1121.8248259874874 0 0 0
242 17 2 0 -874.450107164837 -524.4237967453598 -1074.2270579967098 0 0 0
5531 369 11 1 -2611.0693859903495 -448.0387225709327 -1123.0423526175703 0 0 0
245 17 5 0 -1257.5141254384546 -443.2111686509117 -1092.1847599496068 0 0 0
248 17 8 0 -1259.3178348107178 -375.65710485703937 -1059.634967413047 0 0 0
1620 108 15 0 -1156.3241223242653 -445.862324816438 -1124.7900172030384 0 0 0
927 62 12 0 -872.2333565827421 -438.2271076104747 -1119.517453755492 0 0 0
925 62 10 1 -820.5039997877824 -416.1442365880425 -1090.0424813797283 0 0 0
922 62 7 2 -765.2946069420318 -404.94670089490404 -1065.8122468660754 0 0 0
1607 108 2 0 -1137.1707498549908 -359.0859243226354 -1070.3739064378653 0 0 0
5061 338 6 -0.5 -760.6066322243776 -336.5954140927951 -1073.5276023972604 0 0 0
5069 338 14 -1.5 -739.4811401105771 -374.56041949840153 -1065.590882721529 0 0 0
3378 226 3 -1.5 -741.7185235225027 -371.45030602519034 -1051.8037033688056 0 0 0
5064 338 9 0 -797.5248119348126 -295.47734126949354 -1056.6341454047802 0 0 0
5438 363 8 0 -490.9638339799032 -235.030183638174 -1114.0601095810657 0 0 0
3128 209 8 0 -1306.4874440530698 -186.8028945676803 -1123.0436421483273 0 0 0
3125 209 5 0 -1259.074184563113 -172.1110729596366 -1089.113547821842 0 0 0
3130 209 10 1 -1135.9019136065583 -155.9162635315829 -1073.3024936221454 0 0 0
3127 209 7 2 -1082.4467745481495 -185.626487834038 -1066.1889697795887 0 0 0
3131 209 11 1 -1033.567647641012 -206.56660957241658 -1060.630939248861 0 0 0
3129 209 9 0 -970.6800482378468 -223.2061972516609 -1056.194957069339 0 0 0
3123 209 3 -1.5 -1210.1767395074821 -82.23753485415527 -1058.453590518071 0 0 0
3132 209 12 0 -1186.8157899543432 -119.78539588688021 -1073.4638969173473 0 0 0
652 44 7 2 -87.96352352460232 -136.93308463984633 -1088.254532404404 0 0 0
2929 196 4 0 -2315.110188767489 5.367292661667991 -1104.067010805975 0 0 0
3107 208 2 0 -902.8998863873242 339.22966125599373 -1050.8833320945503 0 0 0
3109 208 4 0 -860.3262955387826 340.8398384248089 -1085.3023556188555 0 0 0
994 67 4 0 -755.6142045089294 306.56355681358013 -1076.5914986613825 0 0 0
1294 87 4 0 -775.8859143430587 350.36110717558927 -1085.6084487840958 0 0 0
992 67 2 0 -806.0721869678653 319.46909777742127 -1051.6401648499361 0 0 0
3025 202 10 1 -676.0780696147548 372.7328652435478 -1064.0279861623953 0 0 0
2399 160 14 -1.5 -589.191686935304 364.2198024725528 -1050.0373710147346 0 0 0
3020 202 5 0 -795.2166787656836 415.404937149174 -1098.3834512315445 0 0 0
3022 202 7 2 -616.0219346798634 378.87623066614645 -1075.8675162252157 0 0 0
3026 202 11 1 -564.0679400010971 389.9523023166727 -1083.0642159564989 0 0 0
3024 202 9 0 -498.2461152728677 392.3518138964377 -1089.6917339994384 0 0 0
3021 202 6 -0.5 -449.075216257514 405.05800617061277 -1100.6979511366153 0 0 0
3029 202 14 -1.5 -416.5347935656987 434.97062223718683 -1101.0223442041145 0 0 0
2387 160 2 0 -642.8711657998822 470.26323262794887 -1089.0029555893711 0 0 0
2389 160 4 0 -607.340070587824 514.1126670548018 -1116.9465484946165 0 0 0
3030 202 15 0 -465.28881287885145 471.2856826674857 -1102.5773558168519 0 0 0
5168 345 8 0 -1946.4686444586732 594.7492485238218 -1080.4544430102935 0 0 0
5161 345 1 0 -1905.1422251004797 553.8888567438302 -1095.1842977681697 0 0 0
3017 202 2 0 -444.90831137617425 528.1154338793962 -1101.1840197512647 0 0 0
3019 202 4 0 -412.939579838839 562.8866322841868 -1112.1826563912564 0 0 0
4663 311 13 -0.5 -1204.640189186637 704.9948063815831 -1074.4575699080533 0 0 0
4653 311 3 -1.5 -1194.6952913497446 747.1478412812589 -1077.026656913809 0 0 0
3061 205 1 0 -2712.1742424543318 775.1851766420831 -1050.883053286531 0 0 0
4662 311 12 0 -1158.8363164696068 779.948065579069 -1055.567989133895 0 0 0
4660 311 10 1 -1135.7554301543148 838.429409556668 -1061.669364009793 0 0 0
4657 311 7 2 -1102.6454848311964 890.1368012682793 -1057.788457623553 0 0 0
5175 345 15 0 -2013.5797668841867 914.0105041759695 -1062.3742007104095 0 0 0
4093 273 13 -0.5 -1101.089525341726 912.1332599628417 -1090.5950239548513 0 0 0
4083 273 3 -1.5 -1063.3740328151678 926.6385334166056 -1106.2855074956667 0 0 0
4661 311 11 1 -1066.368140004996 929.5056910821962 -1050.8980433916572 0 0 0
4092 273 12 0 -1019.2847789668308 934.1256468528117 -1080.8853759078902 0 0 0
5626 376 1 0 -1068.173232148899 1022.102636458908 -1086.0681666473902 0 0 0
5638 376 13 -0.5 -907.7205364505056 975.8180492573506 -1079.4168631979203 0 0 0
4090 273 10 1 -972.3533938971984 977.5598671918224 -1069.0087500316915 0 0 0
4087 273 7 2 -922.2549920761994 1012.6276397977314 -1070.1696624167205 0 0 0
4091 273 11 1 -877.8717850920469 1042.1173798858829 -1074.3056480495436 0 0 0
5633 376 8 0 -1048.3976195131556 1064.8288759031147 -1078.2927228729477 0 0 0
4652 311 2 0 -933.6281557529542 1063.077545893508 -1073.5561286091827 0 0 0
4654 311 4 0 -864.0240421198612 1082.48868046267 -1080.601401682458 0 0 0
4173 279 3 -1.5 -835.4620481134768 1124.6622392812662 -1073.6011599314345 0 0 0
4089 273 9 0 -820.6405664159206 1074.461751402005 -1067.7849483692278 0 0 0
4893 327 3 -1.5 -803.6586643389327 1108.0457169797432 -1096.8056981910238 0 0 0
4086 273 6 -0.5 -790.5467357285596 1116.303234867084 -1052.2415984732693 0 0 0
4902 327 12 0 -754.3034953363427 1113.3437576990339 -1100.2877460872414 0 0 0
4903 327 13 -0.5 -834.7775835083778 1130.7508712257581 -1077.5410457827886 0 0 0
4182 279 12 0 -802.8030644997922 1154.1967603409237 -1094.8914431809926 0 0 0