LAMMPS data file via write_data, version 27 Jun 2024, timestep = 640000, units = real

5730 atoms
15 atom types
5364 bonds
16 bond types
5730 angles
15 angle types

-3000 3000 xlo xhi
-1500 1500 ylo yhi
-1500 1500 zlo zhi

Masses

1 241.19
2 73.54000000000001
3 330.71
4 235.16
5 68.06999999999999
6 353.53
7 223.38
8 41.1
9 216.91
10 155.15
11 147.32
12 264.65
13 300.8
14 326.05
15 85.20999999999999

Pair Coeffs # lj/cut/coul/debye/gpu

1 0.71637 40.7505
2 0.665709 48.1397
3 1.15033 39.2216
4 0.726774 43.8077
5 0.514724 53.3428
6 1.17127 41.7847
7 1.2256 38.5601
8 0.675431 54.5696
9 1.26117 43.78
10 0.939007 42.5209
11 0.960667 41.1825
12 1.30988 48.0761
13 1.36645 37.7114
14 1.35529 39.2179
15 0.592003 47.2602

Bond Coeffs # harmonic

1 0.003 59.228
2 0.008 56.48
3 0.001 69.324
4 3.207 42.88
5 0.11 49.807
6 0.002 74.968
7 0.001 91.635
8 0.145 54.383
9 2.709 44.406
10 1.71 61.679
11 1.625 54.051
12 0.207 66.185
13 0.002 64.76
14 0.079 63.886
15 0.2 40
16 0.2 40

Angle Coeffs # harmonic

1 11.427 158.273
2 50.464 132.042
3 8.207 156.514
4 92.705 149.394
5 100 174.44
6 3.15 145.53
7 48.938 159.031
8 17.401 129.945
9 15.735 56.441
10 60 172.254
11 60.285 168.396
12 11.83 99.091
13 150 107.995
14 27.746 149.925
15 7.483 160.775

Atoms # full

2403 161 3 -1.5 -2451.136622282963 -1461.0210543419662 -1475.5020331536382 0 0 0
2413 161 13 -0.5 -2464.242783439274 -1483.9242948193084 -1442.0965612267287 0 0 0
2412 161 12 0 -2403.9166749379124 -1442.427457610611 -1488.836101040451 0 0 0
2410 161 10 1 -2347.196607341474 -1436.1409156349098 -1458.1359018514904 0 0 0
3623 242 8 0 -449.9371212472507 -1285.2921039591818 -1439.2052722026122 0 0 0
3616 242 1 0 -439.64937231564227 -1289.0932914123832 -1494.722208469429 0 0 0
2594 173 14 -1.5 -1699.2628169812094 -504.71705656805034 -1468.8142510413156 0 0 1
2584 173 4 0 -1557.9975818321116 -483.8754872329682 -1492.8094328511525 0 0 1
1079 72 14 -1.5 -341.841821819876 -377.62372147887095 -1493.6298956621008 0 0 1
973 65 13 -0.5 -2734.237977321586 -320.59611171761657 -1487.2120841564554 0 0 0
2938 196 13 -0.5 -2549.849410303619 -327.29888196120686 -1486.322300405297 0 0 0
963 65 3 -1.5 -2735.685842562283 -298.2006068124633 -1450.9101513658056 0 0 0
972 65 12 0 -2724.628510188561 -252.34602975609423 -1442.9405322588684 0 0 0
2928 196 3 -1.5 -2553.385848813498 -299.82791840119364 -1453.7398030586587 0 0 0
2937 196 12 0 -2523.183230077363 -264.2295481520984 -1437.1265573048472 0 0 0
965 65 5 0 -2783.8037058262844 -221.63695179991717 -1444.8544517205162 0 0 0
970 65 10 1 -2674.5292129570744 -207.79149356981262 -1429.1688845111707 0 0 0
2933 196 8 0 -2644.7880196690203 -176.4870309023804 -1476.2935062194174 0 0 0
2930 196 5 0 -2579.8794650166146 -198.41956823911255 -1437.4139048056172 0 0 0
968 65 8 0 -2844.5731081085364 -144.6638689041665 -1442.5187577069737 0 0 0
1413 95 3 -1.5 -1767.3728328501995 405.5781344065789 -1431.4715940683386 0 0 0
1422 95 12 0 -1725.5647430030665 433.330657253981 -1427.6582935204897 0 0 0
4933 329 13 -0.5 -2097.8239731179747 546.6688127130553 -1471.150820669816 0 0 0
4923 329 3 -1.5 -2060.1471752029865 538.3173344122196 -1452.1112412111763 0 0 0
4932 329 12 0 -2024.6709239963009 572.7784294763601 -1433.2391752337944 0 0 0
4921 329 1 0 -2115.7832187026024 725.7183629810277 -1494.6903039759889 0 0 0
4928 329 8 0 -2138.1244162839994 706.2107258017767 -1437.8912661245768 0 0 0
1410 94 15 0 -2198.501638306616 931.4115057042055 -1475.1507841655707 0 0 1
4483 299 13 -0.5 -2165.4352818674856 907.5251862382257 -1499.6177591105286 0 0 0
4473 299 3 -1.5 -2157.2646943627055 943.8620659124718 -1477.4020278738587 0 0 0
4482 299 12 0 -2118.408750021603 973.5350349541046 -1472.3754560008333 0 0 0
4475 299 5 0 -2152.4069893141664 1036.7654824495487 -1477.0601301163867 0 0 0
4480 299 10 1 -2065.96017836003 981.8029612593447 -1438.630021052167 0 0 0
4478 299 8 0 -2185.1145611503225 1089.7588197135196 -1489.9463405461447 0 0 0
4471 299 1 0 -2210.5839636800238 1126.9001261277454 -1462.1015906552586 0 0 0
3618 242 3 -1.5 -414.07454319002125 -1428.518827249212 -1360.868982029983 0 0 0
2407 161 7 2 -2299.3869810909086 -1424.257068375448 -1421.6293254929096 0 0 0
2411 161 11 1 -2253.9196312799445 -1413.3138392942392 -1393.6968520299552 0 0 0
2409 161 9 0 -2200.443688435631 -1389.9801535410234 -1360.4221750394188 0 0 0
3628 242 13 -0.5 -457.3232836576378 -1422.6677395288068 -1363.6369781841247 0 0 0
3627 242 12 0 -373.6584061366449 -1403.5037327535115 -1362.8494532355162 0 0 0
3620 242 5 0 -412.33825746762136 -1341.552483090395 -1390.7649686230016 0 0 0
3770 252 5 0 -2075.0674160642566 -1108.03140835514 -1350.3797197774275 0 0 0
1813 121 13 -0.5 -2449.511627218706 -589.8697847200419 -1363.0846292237907 0 0 0
2935 196 10 1 -2469.4927321661307 -240.76382636538364 -1407.1257570842122 0 0 0
2932 196 7 2 -2412.9710494597884 -228.46786258690472 -1387.2797750227564 0 0 0
967 65 7 2 -2625.403008208105 -173.16271064491457 -1414.8679703576945 0 0 0
971 65 11 1 -2576.327937497368 -155.38049398096265 -1403.3464699970923 0 0 0
2936 196 11 1 -2365.485675619095 -213.22389749539727 -1367.770811122835 0 0 0
2940 196 15 0 -2224.9171038120194 -199.11584635099376 -1378.418308687499 0 0 0
2927 196 2 0 -2142.493069775367 -184.33794352350432 -1392.3171768563288 0 0 0
2929 196 4 0 -2104.187162097493 -193.52396432514382 -1404.3360213813103 0 0 0
961 65 1 0 -2852.3242540123624 -90.2892886349261 -1422.6070786152156 0 0 0
969 65 9 0 -2511.1097588824878 -144.40268786521946 -1392.4019956606744 0 0 0
975 65 15 0 -2481.21208808867 -92.64241559717115 -1389.8835418372653 0 0 0
966 65 6 -0.5 -2464.634322953936 -134.1279449858318 -1370.3705251835368 0 0 0
962 65 2 0 -2498.8348786288507 -20.705058530511618 -1360.3504618672177 0 0 0
964 65 4 0 -2479.6860614843627 32.18413321541299 -1352.3609987799287 0 0 0
648 44 3 -1.5 -409.02165302466653 53.304394017150734 -1367.3741072548444 0 0 0
658 44 13 -0.5 -447.879602913678 43.9901966686077 -1352.2750477869524 0 0 0
657 44 12 0 -369.2987122736664 78.18738871109842 -1352.0741787094412 0 0 0
653 44 8 0 -446.35755348760614 240.05460191699362 -1351.0887493146638 0 0 0
1423 95 13 -0.5 -1779.9892617466778 366.23531799761383 -1420.265101123378 0 0 0
1420 95 10 1 -1663.600874533807 443.3398636719774 -1402.2245156712243 0 0 0
1415 95 5 0 -1766.8691284202146 486.91069088461506 -1400.0682999172213 0 0 0
1417 95 7 2 -1610.5819562894187 467.5630698172044 -1379.656953861982 0 0 0
1421 95 11 1 -1566.0313341734425 491.5084258220372 -1361.3032504878922 0 0 0
4930 329 10 1 -1968.4806071231478 579.6149093878059 -1403.5007472974012 0 0 0
4927 329 7 2 -1917.6759805285308 588.0349818129419 -1368.363207150245 0 0 0
1418 95 8 0 -1807.1387296954074 546.8150785036765 -1408.0568310213882 0 0 0
1411 95 1 0 -1799.208301566377 597.3675271848246 -1398.532627993852 0 0 0
4925 329 5 0 -2078.840750733764 641.9942120081594 -1402.9454994559271 0 0 0
1397 94 2 0 -2198.855554628555 998.6053161653819 -1422.1747203203965 0 0 1
1399 94 4 0 -2206.0685404245196 1022.6190058709084 -1362.4662419420977 0 0 1
4477 299 7 2 -2017.3001153559148 997.1964164665626 -1404.4463574756282 0 0 0
4481 299 11 1 -1972.1623661667593 1003.7037537504062 -1376.194469111946 0 0 0
4479 299 9 0 -1911.950545214439 1009.9803693485849 -1352.2193026613245 0 0 0
4891 327 1 0 -786.4213504516358 1253.4564639869695 -1365.9850991909775 0 0 0
5378 359 8 0 -640.5934650913134 1260.8974410718722 -1376.9864773044696 0 0 0
4238 283 8 0 -2302.0878994206632 1299.1919413703404 -1365.5796674724445 0 0 0
4231 283 1 0 -2306.997560757876 1337.6094936841266 -1405.0333574082754 0 0 0
4081 273 1 0 -1163.6815311733997 1299.5883664785888 -1360.9008315726778 0 0 0
5371 359 1 0 -700.1174504412328 1290.5158272766755 -1376.0917532891658 0 0 0
2406 161 6 -0.5 -2175.0834522617724 -1371.7843691088528 -1315.4390703236522 0 0 0
2414 161 14 -1.5 -2141.9269813524584 -1375.1441895842972 -1286.0868148230047 0 0 0
3625 242 10 1 -315.87960419740966 -1388.0479522431353 -1341.543487469394 0 0 0
3622 242 7 2 -259.6141996689896 -1377.1748109990856 -1320.416353791389 0 0 0
3626 242 11 1 -214.8689712523698 -1359.2901667723017 -1294.7987361196108 0 0 0
2415 161 15 0 -2192.7251812154686 -1331.301376745774 -1311.3057606566488 0 0 0
3778 252 13 -0.5 -2091.954830836513 -1250.3203169349288 -1333.1203529340492 0 0 0
3768 252 3 -1.5 -2050.0517244813 -1250.4660276186873 -1324.254628891864 0 0 0
3777 252 12 0 -2018.756969866183 -1215.2076866584825 -1322.609382528023 0 0 0
3775 252 10 1 -1960.257085434212 -1201.8219046450579 -1297.4082119713694 0 0 0
3772 252 7 2 -1903.353927548832 -1186.785840494632 -1278.7757390640404 0 0 0
3766 252 1 0 -2129.3497487235363 -985.4429000110927 -1318.016024303189 0 0 0
3773 252 8 0 -2082.41688590931 -1032.904426620405 -1337.2584916576723 0 0 0
2668 178 13 -0.5 -259.4375162402592 -905.7181400828435 -1327.8024175398245 0 0 0
2658 178 3 -1.5 -270.96923736858986 -885.4222584736403 -1291.2979179579975 0 0 0
1608 108 3 -1.5 -1551.0874690729831 -663.7344910633631 -1289.645046992774 0 0 0
1803 121 3 -1.5 -2453.4154692033876 -594.0941891427522 -1320.3525128051263 0 0 0
1812 121 12 0 -2431.5813830589223 -571.4880348594021 -1280.2790010238057 0 0 0
1805 121 5 0 -2486.4253747998287 -514.9201114881876 -1282.7592758088447 0 0 0
923 62 8 0 -926.7863209087767 -460.0971602233545 -1287.49443829394 0 0 0
1801 121 1 0 -2537.8676983078067 -384.19990292253846 -1288.1291292517246 0 0 0
916 62 1 0 -897.4479455951681 -426.1881635348256 -1298.0812495333614 0 0 0
2934 196 9 0 -2302.5880251804556 -212.0768916202621 -1346.2337716026873 0 0 0
2931 196 6 -0.5 -2261.724151889189 -204.70444067189325 -1310.2413399406137 0 0 0
2939 196 14 -1.5 -2220.92960309372 -217.7388501534826 -1301.433183339275 0 0 0
974 65 14 -1.5 -2435.91841879748 -143.79042807134064 -1337.9136648497408 0 0 0
655 44 10 1 -309.5511188948517 72.44767168284055 -1325.0154177383301 0 0 0
652 44 7 2 -249.73786568128452 67.78583572740915 -1313.0275359598645 0 0 0
656 44 11 1 -196.84392250110278 58.08620676930988 -1305.430970657771 0 0 0
654 44 9 0 -129.3422223616521 53.02657720689438 -1309.5711001987706 0 0 0
651 44 6 -0.5 -77.10721841180684 46.889692181204744 -1292.817478285391 0 0 0
650 44 5 0 -406.1410452702594 188.52509524504623 -1335.4340396277014 0 0 0
646 44 1 0 -519.5656258085102 234.36082177906485 -1349.330933526004 0 0 0
1063 71 13 -0.5 -701.4277096846458 373.46060299457423 -1288.4085371734327 0 0 0
1718 115 8 0 -552.2979635506871 421.3792806382143 -1285.2528450680236 0 0 0
1419 95 9 0 -1508.0617098808118 509.6996452968648 -1336.0454585012812 0 0 0
1416 95 6 -0.5 -1467.102627484133 516.0280253567427 -1303.3666720674496 0 0 0
1058 71 8 0 -751.0080554262806 515.834897497781 -1298.9637980707193 0 0 0
1424 95 14 -1.5 -1427.0585096586785 533.6956718691262 -1295.3479459145942 0 0 0
1425 95 15 0 -1492.5774555328546 545.4692710659525 -1313.3358778945062 0 0 0
1051 71 1 0 -741.9782774315225 573.9641764347373 -1342.4448096994226 0 0 0
4931 329 11 1 -1869.5398531828157 601.3477077754443 -1346.9601559383254 0 0 0
4929 329 9 0 -1815.3866696888474 635.5470833857547 -1324.3493510681963 0 0 0
4926 329 6 -0.5 -1772.125656513375 652.5036199070373 -1293.98551344688 0 0 0
1412 95 2 0 -1487.0871129332872 609.9831170940515 -1281.0833422823125 0 0 0
4693 313 13 -0.5 -2866.5912435565974 682.9985432686057 -1329.5882455004426 0 0 0
4683 313 3 -1.5 -2879.1478854895413 699.1204612580215 -1292.1323764718563 0 0 0
4935 329 15 0 -1799.104012032627 703.3219571452041 -1318.834595251877 0 0 0
4934 329 14 -1.5 -1736.6896821892972 677.8428562682416 -1287.0959862390155 0 0 0
4922 329 2 0 -1762.0769696392442 753.3112130480878 -1287.0709306573438 0 0 0
4681 313 1 0 -2935.5454569617277 919.3035290041636 -1302.6241110252392 0 0 0
4484 299 14 -1.5 -1841.966980168705 1008.1191104102151 -1288.1802642977193 0 0 0
4476 299 6 -0.5 -1867.3386818144675 1001.8158290246771 -1324.243250267049 0 0 0
4903 327 13 -0.5 -829.5609832231105 1006.9505055776334 -1342.4445146902613 0 0 0
4893 327 3 -1.5 -793.6813953877854 1008.1684724666645 -1318.6258813231984 0 0 0
4902 327 12 0 -762.6050129289044 1046.3596415412153 -1303.2903884586856 0 0 0
4485 299 15 0 -1888.081119749524 1052.4991600983142 -1305.2313029743916 0 0 0
4900 327 10 1 -703.392480002555 1060.5034745457751 -1295.3348288068312 0 0 0
4897 327 7 2 -644.308151535074 1067.826949068537 -1282.1315995342177 0 0 0
5373 359 3 -1.5 -592.366650995789 1114.9609651542603 -1297.5442789536287 0 0 0
4899 327 9 0 -527.4613556188455 1101.7965726058987 -1280.8991358127457 0 0 0
4901 327 11 1 -592.9348374124938 1083.5236739035029 -1275.5238780339137 0 0 0
4896 327 6 -0.5 -471.61941981313146 1093.1606430875986 -1275.8553542507916 0 0 0
4904 327 14 -1.5 -439.64163028664206 1062.6752511899797 -1276.9084755511713 0 0 0
4243 283 13 -0.5 -2296.407474595602 1142.5084610444649 -1322.958316181926 0 0 0
4233 283 3 -1.5 -2261.1605965351787 1149.3481150521295 -1300.263967987354 0 0 0
4242 283 12 0 -2226.5128581370154 1183.9238387830064 -1293.3169869140884 0 0 0
4895 327 5 0 -809.09040776586 1126.1313655879378 -1325.0278107166491 0 0 0
5382 359 12 0 -568.5893887342145 1157.9789479906485 -1288.7931305714503 0 0 0
5375 359 5 0 -587.9728893209292 1197.0737116859805 -1344.9518907010772 0 0 0
4235 283 5 0 -2278.9209221889573 1236.5333683174513 -1320.3575489511907 0 0 0
4898 327 8 0 -814.832345439438 1206.3329946644928 -1339.4083775968081 0 0 0
4088 273 8 0 -1177.9806665598248 1282.9938326296453 -1307.2943862229306 0 0 0
5626 376 1 0 -1052.4451130559364 1281.1057953772774 -1306.2326747417662 0 0 0
4268 285 8 0 -466.1784381653442 1344.650189474588 -1276.340929442396 0 0 0
2402 161 2 0 -2175.5212902337644 -1291.7904078417096 -1253.2907753458794 0 0 0
3624 242 9 0 -159.4253104470168 -1348.5424677870124 -1257.1541901350831 0 0 0
3621 242 6 -0.5 -126.28007286634066 -1344.1260854028453 -1214.4737779119043 0 0 0
3630 242 15 0 -106.56758402706414 -1323.1638908603552 -1270.321821679897 0 0 0
3617 242 2 0 -52.41262241682193 -1299.1873569326763 -1267.0458136517664 0 0 0
2404 161 4 0 -2182.66177808679 -1254.9213245510737 -1222.2205744509736 0 0 0
3776 252 11 1 -1857.4792696635395 -1172.7581100214993 -1253.7683571028315 0 0 0
3774 252 9 0 -1807.5663353428497 -1154.5822877253127 -1212.8168044947352 0 0 0
2667 178 12 0 -252.25406535658004 -843.6849293017597 -1263.3702884156096 0 0 0
2663 178 8 0 -383.8936193006173 -750.0383032514749 -1258.7811539938969 0 0 0
2660 178 5 0 -327.3117676993563 -779.0274822008121 -1270.9237330085589 0 0 0
2665 178 10 1 -201.95186464611098 -817.6587067885984 -1242.4418370957103 0 0 0
2662 178 7 2 -147.55555210122964 -791.9186885670014 -1229.8798821555447 0 0 0
2666 178 11 1 -96.27379191088538 -778.1348456649305 -1219.9393060587581 0 0 0
2664 178 9 0 -29.902924284302745 -772.9173217674323 -1212.7637004444475 0 0 0
1618 108 13 -0.5 -1574.432550238879 -690.0230068931697 -1265.7946638428525 0 0 0
2656 178 1 0 -426.1217648328503 -718.9944899981385 -1271.3883355658215 0 0 0
1617 108 12 0 -1513.2960309791133 -633.4002809394844 -1268.64770240261 0 0 0
1615 108 10 1 -1461.6791262904853 -619.1573602137935 -1229.4875994765373 0 0 0
5528 369 8 0 -2749.339869574044 -570.6931068418617 -1220.7248896448316 0 0 0
1810 121 10 1 -2384.0639583050142 -558.3015807401566 -1236.4987615135572 0 0 0
1807 121 7 2 -2331.6187330450275 -539.0141355514234 -1211.702019800035 0 0 0
1606 108 1 0 -1722.5274047701544 -552.8257084305253 -1255.8204613250452 0 0 0
1613 108 8 0 -1652.240580630282 -547.8043934554619 -1239.1213022406525 0 0 0
1610 108 5 0 -1585.5419721062913 -574.1070966963591 -1237.4075532545382 0 0 0
5521 369 1 0 -2769.0584541659596 -516.3719316287221 -1244.535854173935 0 0 0
920 62 5 0 -919.0136468661092 -477.25186595854166 -1230.3197488483809 0 0 0
1808 121 8 0 -2517.6172317983364 -434.8071111776724 -1258.535152234293 0 0 0
241 17 1 0 -1301.2640378628457 -398.0413978576335 -1242.893195340804 0 0 0
248 17 8 0 -1239.4779916973391 -408.0624311204307 -1222.0831194254797 0 0 0
659 44 14 -1.5 -48.73725234199947 40.50195791557547 -1259.2406898713286 0 0 0
660 44 15 0 -82.76463457821474 90.77978135399623 -1269.0919837714612 0 0 0
647 44 2 0 -39.27470850898259 142.59416880427236 -1201.5826745032643 0 0 0
1723 115 13 -0.5 -494.64772067887384 251.9620539785362 -1243.979616772983 0 0 0
1713 115 3 -1.5 -493.3013152261631 295.04802233673036 -1241.8072036761464 0 0 0
1722 115 12 0 -454.9416921247985 326.33266862734826 -1224.0222997174867 0 0 0
1720 115 10 1 -392.65655598268984 336.979760725113 -1210.1648771901469 0 0 0
1298 87 8 0 -1192.1380473183315 401.0309291706026 -1221.7999094240652 0 0 0
1053 71 3 -1.5 -682.7770464546257 385.8661937788815 -1251.659590303698 0 0 0
1062 71 12 0 -644.0948712369038 417.79967031693513 -1243.2148230455628 0 0 0
1060 71 10 1 -597.3358909336666 439.6555102258292 -1206.7640659783137 0 0 0
1715 115 5 0 -478.4655315275529 382.6922044812386 -1265.8992009099939 0 0 0
1291 87 1 0 -1187.1144975626075 470.7682547112201 -1214.9418471660092 0 0 0
1055 71 5 0 -692.6437128420306 489.9419095497202 -1273.6414802136196 0 0 0
1711 115 1 0 -593.08518185077 461.86805563399565 -1250.4482371660145 0 0 0
1414 95 4 0 -1480.173695220567 643.0524309336361 -1224.097273421573 0 0 0
4692 313 12 0 -2857.5081630102572 707.4336308664323 -1248.278840033917 0 0 0
4690 313 10 1 -2808.4707603487223 697.2909362376065 -1209.4432911093843 0 0 0
4685 313 5 0 -2905.5958349081493 795.9140978153735 -1221.490027024431 0 0 0
4924 329 4 0 -1733.8694660719157 770.8692928765556 -1233.971459266781 0 0 0
4688 313 8 0 -2924.4101701214886 873.6689125710074 -1248.5668714940825 0 0 0
5638 376 13 -0.5 -1062.5924025807587 1105.5738416986403 -1206.7831552017612 0 0 0
5637 376 12 0 -980.139952132394 1107.3389048899617 -1202.0139541486067 0 0 0
5383 359 13 -0.5 -615.5246382337054 1091.8257262419436 -1270.3683231724547 0 0 0
4363 291 13 -0.5 -2347.142912487203 1164.5275129303648 -1270.648745029166 0 0 0
4353 291 3 -1.5 -2336.6714108346523 1140.806499969178 -1236.541380035773 0 0 0
4474 299 4 0 -1878.1136779664635 1190.4420113851459 -1247.7299758923505 0 0 0
4472 299 2 0 -1866.0842870312272 1129.8505382619683 -1270.7294346551525 0 0 0
4663 311 13 -0.5 -1376.7387514286988 1157.6659655678895 -1217.7410068003735 0 0 0
4653 311 3 -1.5 -1341.166052451753 1135.2993392550975 -1225.3764842224025 0 0 0
4662 311 12 0 -1291.283312608815 1146.2534445431613 -1220.657425213602 0 0 0
4093 273 13 -0.5 -1206.1740015318362 1133.3213972656824 -1209.267315298143 0 0 0
4660 311 10 1 -1229.0576993373954 1130.7525237533503 -1216.8203081383567 0 0 0
4083 273 3 -1.5 -1181.5272254539368 1139.7197392902565 -1244.3544451795244 0 0 0
4657 311 7 2 -1168.1102600066984 1126.4618246877324 -1204.6137849252875 0 0 0
4092 273 12 0 -1130.4857730481208 1144.1320755980994 -1249.042190597895 0 0 0
4090 273 10 1 -1066.3994594513686 1141.8550326175832 -1226.1744651217878 0 0 0
4087 273 7 2 -1008.5228112601513 1149.4747435094125 -1204.2357600950204 0 0 0
5630 376 5 0 -1018.2803961093656 1194.7185830505448 -1223.5635830220176 0 0 0
4273 285 13 -0.5 -550.5345115379922 1158.6839117331663 -1242.2289316859055 0 0 0
4905 327 15 0 -476.23563742381987 1153.6233773712868 -1252.469118138263 0 0 0
5380 359 10 1 -517.7740095143148 1186.8286003141795 -1263.7965968779192 0 0 0
4263 285 3 -1.5 -514.9706005346693 1143.7703226533044 -1223.6453025308833 0 0 0
4272 285 12 0 -473.39089376287615 1167.822132779765 -1202.515245867453 0 0 0
4892 327 2 0 -431.59944462392633 1181.4689723539352 -1220.2985114691737 0 0 0
4240 283 10 1 -2187.8580406084866 1214.0933451939077 -1255.0090369503125 0 0 0
4237 283 7 2 -2141.3075223924775 1236.6489036169871 -1221.9040933100364 0 0 0
4655 311 5 0 -1293.2292132011366 1231.7853009015532 -1224.8780386864041 0 0 0
4085 273 5 0 -1150.3633719658123 1233.0305213190877 -1266.972193606035 0 0 0
5633 376 8 0 -1051.3863667486644 1246.339122990137 -1251.7128629556476 0 0 0
4178 279 8 0 -833.7700901548063 1231.089704784305 -1211.8437028598673 0 0 0
5377 359 7 2 -462.43438259720074 1209.444363757466 -1247.7107458987743 0 0 0
4265 285 5 0 -471.4693724339552 1270.0786447821552 -1256.892939800216 0 0 0
5381 359 11 1 -412.0378744114841 1224.9815989435126 -1232.715132775617 0 0 0
5379 359 9 0 -348.2955817052753 1237.3183742904705 -1226.8451351053027 0 0 0
5376 359 6 -0.5 -293.31793100345914 1234.1332398400384 -1234.5377635538866 0 0 0
5384 359 14 -1.5 -255.3569930652979 1210.1956865051204 -1232.1290414754762 0 0 0
4658 311 8 0 -1277.0676661982193 1283.9762472330406 -1221.5209140494012 0 0 0
4651 311 1 0 -1317.9176050051528 1330.6110795444374 -1204.5881972655084 0 0 0
4232 283 2 0 -1959.2550939598755 1350.2978993290046 -1216.6082150365153 0 0 0
4234 283 4 0 -1932.145890246835 1399.3556494238712 -1232.5865773918456 0 0 0
4261 285 1 0 -514.9888725373877 1393.3946136575246 -1252.8605454463118 0 0 0
3629 242 14 -1.5 -121.19347760882476 -1339.215674146761 -1170.4160532196954 0 0 0
3771 252 6 -0.5 -1767.2242205165296 -1163.8787220539714 -1180.0361317727177 0 0 0
3779 252 14 -1.5 -1731.5034362245951 -1188.356895179658 -1170.199365600011 0 0 0
3780 252 15 0 -1785.161192871398 -1102.074460153538 -1169.719276618945 0 0 0
3767 252 2 0 -1738.4795750810263 -1028.1122270288552 -1129.4179496325673 0 0 0
5533 369 13 -0.5 -2697.7904697622316 -745.007711360002 -1149.6452632820492 0 0 0
5523 369 3 -1.5 -2674.47202522146 -715.1592322659654 -1169.466697651979 0 0 0
5532 369 12 0 -2640.9904471801447 -681.5740095548153 -1150.4478103986341 0 0 0
5525 369 5 0 -2687.911447438621 -612.6662416304397 -1193.7249383764454 0 0 0
5530 369 10 1 -2579.3931666864733 -665.1365708934743 -1138.880610348093 0 0 0
5527 369 7 2 -2518.4349342966607 -658.9780079359091 -1133.019478577825 0 0 0
1612 108 7 2 -1408.9688161486213 -613.8474032975544 -1198.4206789290959 0 0 0
1616 108 11 1 -1361.1213072893213 -612.3950388517457 -1172.8329531555355 0 0 0
1614 108 9 0 -1301.7196011058447 -624.0096761957074 -1150.481858811596 0 0 0
1611 108 6 -0.5 -1256.9294977674408 -646.4209592487048 -1126.1027021810544 0 0 0
253 17 13 -0.5 -1214.7857616877511 -553.9476016784206 -1169.9354922910322 0 0 0
1620 108 15 0 -1262.3336989786465 -580.1527894180981 -1127.0506759155096 0 0 0
243 17 3 -1.5 -1180.866074311876 -553.4169451238993 -1142.6995289720592 0 0 0
918 62 3 -1.5 -914.5667786213189 -596.2677404598466 -1154.1328554256704 0 0 0
927 62 12 0 -874.0492521806251 -567.6308644364556 -1161.7509796517645 0 0 0
925 62 10 1 -810.1682969402917 -550.4969492292931 -1145.0004284608378 0 0 0
1811 121 11 1 -2283.8562505536297 -517.2283527273988 -1197.247930608574 0 0 0
1809 121 9 0 -2221.1198605881586 -511.0268336520445 -1184.663101072264 0 0 0
1815 121 15 0 -2202.0563577784205 -464.2586362476106 -1140.6903756629563 0 0 0
1806 121 6 -0.5 -2175.3759730791553 -495.95646383796606 -1157.3057263926012 0 0 0
1814 121 14 -1.5 -2149.935757177925 -464.11918300891006 -1139.8712466194795 0 0 0
1607 108 2 0 -1250.8223065286393 -510.76249218783823 -1135.465591460547 0 0 0
1609 108 4 0 -1241.322942016311 -470.67938434505885 -1172.686914290854 0 0 0
252 17 12 0 -1146.3456620967058 -520.2142736565606 -1132.1874390779392 0 0 0
245 17 5 0 -1192.3104170789065 -440.8022245646301 -1152.8621738936552 0 0 0
1804 121 4 0 -2117.993270857435 -356.7777303310238 -1125.9043133700113 0 0 0
3133 209 13 -0.5 -1124.476089885912 -117.03892906884835 -1153.6212411309589 0 0 0
3123 209 3 -1.5 -1107.971997439289 -77.06249725102643 -1151.6487507313996 0 0 0
3132 209 12 0 -1063.0206029186534 -53.736420696010676 -1155.248856929229 0 0 0
3130 209 10 1 -1003.693276198208 -52.30032965814954 -1131.4189186023618 0 0 0
1003 67 13 -0.5 -1213.6574558190468 61.32481225687729 -1142.2222584152419 0 0 0
3125 209 5 0 -1109.7443035166789 57.70871713808343 -1153.4350898133132 0 0 0
3128 209 8 0 -1154.51460263781 95.14993550569048 -1172.4419209980624 0 0 0
993 67 3 -1.5 -1194.7134824357954 96.39650859939906 -1126.6918624837149 0 0 0
3121 209 1 0 -1134.6113696467219 147.51145353886594 -1179.3753219142277 0 0 0
649 44 4 0 -7.086521259172087 140.3029707918921 -1157.7491001190845 0 0 0
1303 87 13 -0.5 -1202.8236624024184 202.9524607138369 -1164.9361576550207 0 0 0
1293 87 3 -1.5 -1207.3014554039887 224.860695195668 -1128.7131829980144 0 0 0
1295 87 5 0 -1190.6804938391256 346.96671131894936 -1151.241230047755 0 0 0
1717 115 7 2 -335.96714377211697 347.63485194859345 -1189.6239445625154 0 0 0
1721 115 11 1 -287.1384449994989 361.3600509405934 -1170.0638583769119 0 0 0
1719 115 9 0 -227.7590316591555 367.14597907159475 -1142.0950848646294 0 0 0
1716 115 6 -0.5 -172.67368852778407 359.69959726489543 -1140.6247153348277 0 0 0
1725 115 15 0 -189.59073297987825 412.6535599931588 -1133.5810137812994 0 0 0
1057 71 7 2 -552.3428204787465 453.04018435313657 -1166.0327671967607 0 0 0
1061 71 11 1 -518.4163084040063 463.54099146382123 -1125.2799946419038 0 0 0
1712 115 2 0 -154.34694946758037 489.03055605298135 -1128.348599940902 0 0 0
1714 115 4 0 -132.22437969270123 533.8851012755499 -1143.0673824024777 0 0 0
5173 345 13 -0.5 -2231.9848978237897 622.5926704432076 -1134.6378440088345 0 0 0
4687 313 7 2 -2755.2899715189683 684.5431534534858 -1180.1287869054768 0 0 0
4691 313 11 1 -2708.3294350106767 677.4665139975048 -1156.0199498577392 0 0 0
5628 376 3 -1.5 -1023.8468466401274 1089.3577872873054 -1197.780684111651 0 0 0
5635 376 10 1 -923.7162531524451 1117.7682360372175 -1174.6709927669287 0 0 0
4173 279 3 -1.5 -865.9087850855112 1101.161332897673 -1140.5074745572026 0 0 0
4182 279 12 0 -820.7922562825172 1089.8274809517159 -1158.2470758354225 0 0 0
4180 279 10 1 -759.3459461848614 1073.11627964544 -1136.342348473299 0 0 0
4355 291 5 0 -2401.247455077277 1196.0344765961484 -1151.7226892666686 0 0 0
4362 291 12 0 -2309.74845964035 1153.8107523856677 -1197.4594302155895 0 0 0
4360 291 10 1 -2255.402578973208 1179.1244443914807 -1171.7585852153186 0 0 0
4661 311 11 1 -1114.3656414918346 1128.8089909065343 -1196.9423867614685 0 0 0
4659 311 9 0 -1051.2164899756613 1138.9823879062628 -1182.211181582076 0 0 0
4656 311 6 -0.5 -1002.7356483454889 1138.5887902413497 -1159.865701036476 0 0 0
4664 311 14 -1.5 -961.1994236308901 1125.790938091983 -1157.1264350361273 0 0 0
4091 273 11 1 -955.1181742540648 1152.2537146842506 -1191.3912002497548 0 0 0
4089 273 9 0 -897.7525964076946 1167.2523514918796 -1160.2571925885882 0 0 0
5632 376 7 2 -865.3243112343342 1128.9712399022894 -1157.4011117160449 0 0 0
4086 273 6 -0.5 -849.017669127851 1169.5666665456054 -1140.6470025782862 0 0 0
4175 279 5 0 -815.80943660503 1169.2586982963035 -1196.7436620742046 0 0 0
5636 376 11 1 -816.9106357348434 1140.2440214260082 -1136.795520138854 0 0 0
4094 273 14 -1.5 -805.8625901067727 1179.7377602476026 -1145.8256551547652 0 0 0
5634 376 9 0 -754.7961774880135 1168.7382144834116 -1130.176343909467 0 0 0
4270 285 10 1 -425.297167421454 1172.9291906276849 -1161.9305496563743 0 0 0
4267 285 7 2 -371.88835214651164 1187.345270500519 -1134.3413403817863 0 0 0
4358 291 8 0 -2433.6219078193403 1243.3587637394617 -1134.412581666015 0 0 0
4357 291 7 2 -2206.387482278981 1203.5413042671275 -1143.6914922483334 0 0 0
4241 283 11 1 -2096.2547280945873 1250.5488374105912 -1195.8832908822726 0 0 0
4239 283 9 0 -2045.5089354011702 1257.3713417069928 -1154.02603756752 0 0 0
4665 311 15 0 -1018.8645497448622 1202.31557081718 -1170.1865555332402 0 0 0
4652 311 2 0 -996.6159742418442 1256.3681823251884 -1181.3040749876725 0 0 0
4095 273 15 0 -884.8394806993169 1227.1502410805226 -1140.2233442865268 0 0 0
5631 376 6 -0.5 -719.1508951515879 1209.89304190634 -1138.378516851705 0 0 0
5639 376 14 -1.5 -687.4234233447004 1229.7488488302563 -1162.2294538847573 0 0 0
4894 327 4 0 -406.67305285572246 1213.6555731062945 -1178.9169060145648 0 0 0
4351 291 1 0 -2414.1518401570884 1314.2873163949232 -1126.3222114237574 0 0 0
4245 283 15 0 -1998.829592937734 1298.160756383921 -1164.7724834734934 0 0 0
4654 311 4 0 -969.1809416039665 1300.8434204317912 -1164.44211403975 0 0 0
4171 279 1 0 -876.4793596761638 1282.159527844736 -1189.6948843359646 0 0 0
5385 359 15 0 -304.2759518000559 1278.6720644469451 -1195.6727922716614 0 0 0
5372 359 2 0 -254.5183730921236 1317.7122717016844 -1182.8460989474436 0 0 0
5374 359 4 0 -233.07617369940354 1350.484100537502 -1152.4658342965797 0 0 0
3769 252 4 0 -1688.9510035461599 -992.2293161464672 -1123.7073679794848 0 0 0
193 13 13 -0.5 -1855.9152495062071 -893.4909302496604 -1116.6817165207322 0 0 0
183 13 3 -1.5 -1845.3389145497194 -869.1174599417415 -1083.5304991601968 0 0 0
192 13 12 0 -1804.2395764257046 -840.0387728707124 -1074.4381134195355 0 0 0
185 13 5 0 -1844.6832243787476 -772.1652056709571 -1085.524448835253 0 0 0
188 13 8 0 -1882.2716581873349 -687.3679636782347 -1073.9058116751582 0 0 0
5531 369 11 1 -2465.6110188316684 -657.1183375933477 -1124.1466981810504 0 0 0
5529 369 9 0 -2407.517243390864 -649.8657171929935 -1094.1384601930733 0 0 0
5526 369 6 -0.5 -2366.4972694639014 -667.0122052328117 -1068.8196087026315 0 0 0
181 13 1 0 -1887.6629998838484 -628.7160954763121 -1079.6519047200754 0 0 0
1619 108 14 -1.5 -1216.3972880397432 -639.340417654038 -1110.7283276374933 0 0 0
928 62 13 -0.5 -927.2758586122886 -614.8899065998821 -1117.7209347605465 0 0 0
922 62 7 2 -756.9356645345897 -530.1667556976801 -1124.849172975905 0 0 0
250 17 10 1 -1090.0481077304564 -506.3187891272598 -1105.7168936158484 0 0 0
247 17 7 2 -1032.5417707919655 -499.1207471793853 -1087.9436188533189 0 0 0
251 17 11 1 -981.100381029729 -501.6617577926743 -1072.5524539000724 0 0 0
249 17 9 0 -917.6835991696419 -517.2386619251425 -1058.4416022924456 0 0 0
926 62 11 1 -708.1771696274673 -516.8572421121306 -1106.5887172416933 0 0 0
924 62 9 0 -655.7659033907415 -491.5679253204719 -1077.1482624303792 0 0 0
930 62 15 0 -613.1162035160394 -454.9962326468905 -1088.0243384162366 0 0 0
1802 121 2 0 -2153.3804222201857 -404.42287850556755 -1122.3438268248397 0 0 0
917 62 2 0 -531.363395058144 -445.0555382397365 -1097.888700751528 0 0 0
919 62 4 0 -470.6468137342967 -432.67588557235587 -1116.6708559266506 0 0 0