LAMMPS data file via write_data, version 27 Jun 2024, timestep = 26560000, units = real

5730 atoms
15 atom types
5646 bonds
16 bond types
5730 angles
15 angle types

-3000 3000 xlo xhi
-1500 1500 ylo yhi
-1500 1500 zlo zhi

Masses

1 241.19
2 73.54000000000001
3 330.71
4 235.16
5 68.06999999999999
6 353.53
7 223.38
8 41.1
9 216.91
10 155.15
11 147.32
12 264.65
13 300.8
14 326.05
15 85.20999999999999

Pair Coeffs # lj/cut/coul/debye/gpu

1 0.71637 40.7505
2 0.665709 48.1397
3 1.15033 39.2216
4 0.726774 43.8077
5 0.514724 53.3428
6 1.17127 41.7847
7 1.2256 38.5601
8 0.675431 54.5696
9 1.26117 43.78
10 0.939007 42.5209
11 0.960667 41.1825
12 1.30988 48.0761
13 1.36645 37.7114
14 1.35529 39.2179
15 0.592003 47.2602

Bond Coeffs # harmonic

1 0.003 59.228
2 0.008 56.48
3 0.001 69.324
4 3.207 42.88
5 0.11 49.807
6 0.002 74.968
7 0.001 91.635
8 0.145 54.383
9 2.709 44.406
10 1.71 61.679
11 1.625 54.051
12 0.207 66.185
13 0.002 64.76
14 0.079 63.886
15 0.2 40
16 0.2 40

Angle Coeffs # harmonic

1 11.427 158.273
2 50.464 132.042
3 8.207 156.514
4 92.705 149.394
5 100 174.44
6 3.15 145.53
7 48.938 159.031
8 17.401 129.945
9 15.735 56.441
10 60 172.254
11 60.285 168.396
12 11.83 99.091
13 150 107.995
14 27.746 149.925
15 7.483 160.775

Atoms # full

3769 252 4 0 -1541.8787507427944 -1433.7183848874718 -1463.8226494450023 0 0 0
3767 252 2 0 -1589.3326558164579 -1415.9569034868132 -1428.2087313520065 0 0 0
3773 252 8 0 -1961.3411025038408 -1287.298452082669 -1484.1462739897618 0 0 0
3770 252 5 0 -1911.0200564260883 -1263.066918604772 -1454.7864099435421 0 0 0
2551 171 1 0 -1312.6765976640097 -1207.292431891062 -1473.823529545871 0 0 1
2558 171 8 0 -1312.6633345220785 -1164.9892103386574 -1433.0144795113688 0 0 1
1094 73 14 -1.5 -2492.550835794718 -1038.6120882324897 -1497.7078421791766 0 0 1
1084 73 4 0 -2699.9664316878084 -956.8638111424928 -1443.2100137359478 0 0 1
1082 73 2 0 -2644.589576421059 -966.0687662652449 -1450.1215114674467 0 0 1
1095 73 15 0 -2554.3859020373243 -967.1598493085394 -1498.9059929180298 0 0 1
5704 381 4 0 -564.9065208197375 -696.1324985358879 -1460.051805921878 0 0 1
5702 381 2 0 -524.8023458230205 -663.4722250618588 -1492.4243217049789 0 0 1
1814 121 14 -1.5 -2794.861501726884 -586.2318407687133 -1438.4334102031728 0 0 0
1806 121 6 -0.5 -2769.7448279457903 -551.5097565387379 -1427.7462735925283 0 0 0
973 65 13 -0.5 -2748.2548478993544 -419.0861051380783 -1469.5224076444479 0 0 0
963 65 3 -1.5 -2709.76564611613 -399.46557989133805 -1472.4333793552887 0 0 0
972 65 12 0 -2698.934226945483 -354.5086578106672 -1460.6889081807042 0 0 0
970 65 10 1 -2659.057399519849 -316.92387780979277 -1429.751860345547 0 0 0
1813 121 13 -0.5 -2590.0408624220267 -266.4797461362083 -1426.9721720665325 0 0 0
2930 196 5 0 -2537.8025690011677 -292.657813807767 -1435.514963585121 0 0 0
2586 173 6 -0.5 -1606.9572004231286 -251.71803854997196 -1465.834908309604 0 0 1
2594 173 14 -1.5 -1624.0530738511466 -249.30699144388763 -1425.205445467205 0 0 1
2595 173 15 0 -1550.7336751850416 -282.8346513434286 -1496.4138151737961 0 0 1
1805 121 5 0 -2725.86493703283 -224.51381094879366 -1440.583684202115 0 0 0
1808 121 8 0 -2764.6331658580434 -188.8804128925624 -1498.8552438446006 0 0 0
1055 71 5 0 -771.745479298479 261.87706461587396 -1459.0777813637865 0 0 0
4927 329 7 2 -1820.3254887072458 421.01196802080364 -1476.4175862839738 0 0 0
5288 353 8 0 -2663.47337603008 732.7510074275375 -1426.1918980480714 0 0 1
5285 353 5 0 -2620.147466051375 696.4494979265176 -1452.1585659732057 0 0 1
1414 95 4 0 -1844.7495593213414 877.5680205282989 -1432.3813891444709 0 0 0
4477 299 7 2 -2055.8525140928605 1064.0278760209599 -1447.0306135130627 0 0 0
4352 291 2 0 -2138.7707072926282 1142.3474786117556 -1454.9912480167768 0 0 0
4354 291 4 0 -2146.35919473541 1194.8154853984327 -1482.563589522675 0 0 0
2410 161 10 1 -2311.9212365994995 1414.52920960031 -1463.4448118077364 0 -1 0
3780 252 15 0 -1602.5289623450294 -1377.1081124432692 -1400.66250737369 0 0 0
2552 171 2 0 -920.751992950064 -1353.5948249689939 -1363.9895286498456 0 0 1
2554 171 4 0 -886.998082830393 -1414.2580838289148 -1356.7092132401228 0 0 1
3774 252 9 0 -1622.897924926742 -1294.8038807116209 -1383.360204501394 0 0 0
3771 252 6 -0.5 -1572.4462803265444 -1309.0954315668807 -1401.1390516882193 0 0 0
3779 252 14 -1.5 -1537.3204313683593 -1336.3264018692366 -1396.428587785333 0 0 0
3777 252 12 0 -1860.1787391835446 -1252.874835498913 -1362.5439946517042 0 0 0
3775 252 10 1 -1796.2139336166215 -1258.6239299738136 -1374.3637008736216 0 0 0
3772 252 7 2 -1735.373144402693 -1260.809262533003 -1383.6512852992591 0 0 0
3776 252 11 1 -1681.7233430826082 -1266.8492346844805 -1383.2654187748956 0 0 0
2559 171 9 0 -1013.2873719562896 -1252.1438331316904 -1351.1800166875898 0 0 1
2564 171 14 -1.5 -927.3355714020175 -1245.1320595225366 -1386.9345450183228 0 0 1
2556 171 6 -0.5 -961.7731064399364 -1247.4069285680564 -1358.9533272960152 0 0 1
2555 171 5 0 -1262.216253191102 -1150.1860336135155 -1390.3803058717613 0 0 1
1804 121 4 0 -2709.4225489927985 -695.5231648234051 -1409.7476565815523 0 0 0
1802 121 2 0 -2733.600852467246 -645.0890317197981 -1390.4562512154962 0 0 0
1815 121 15 0 -2727.3341259845097 -564.1784099780903 -1379.3975202441777 0 0 0
1809 121 9 0 -2758.7905079636153 -509.00400842315224 -1393.6706634112984 0 0 0
1811 121 11 1 -2740.2154997620214 -450.1405919605387 -1375.544367992051 0 0 0
1807 121 7 2 -2718.638901114872 -400.49172705984245 -1370.2268771688598 0 0 0
1810 121 10 1 -2688.6189173014154 -346.49606853494856 -1366.7914251807392 0 0 0
1812 121 12 0 -2655.4982450134917 -290.6731042996113 -1383.0356487001131 0 0 0
2938 196 13 -0.5 -2628.1477455102427 -252.8924842760464 -1391.1494254004444 0 0 0
967 65 7 2 -2612.8479377488648 -288.0804891648689 -1401.11558179922 0 0 0
1803 121 3 -1.5 -2613.84406247688 -268.5777234424666 -1391.2829726994678 0 0 0
971 65 11 1 -2570.620627464515 -265.8080747197531 -1375.7764542547218 0 0 0
2928 196 3 -1.5 -2599.799732501805 -231.22530081918688 -1366.7315519492483 0 0 0
2937 196 12 0 -2555.2568567715225 -211.85322239113393 -1379.8805728762823 0 0 0
2935 196 10 1 -2496.5493471429704 -185.74916804267528 -1357.7977024656104 0 0 0
1063 71 13 -0.5 -823.0017770165167 187.79114631698474 -1380.2276857686584 0 0 0
1053 71 3 -1.5 -782.5632807942186 200.8809281658538 -1386.81398910154 0 0 0
1062 71 12 0 -758.1677409087016 241.7981901794976 -1379.464870249232 0 0 0
1060 71 10 1 -699.0026082487359 272.4157149075289 -1365.824145219678 0 0 0
1723 115 13 -0.5 -637.5185755250291 272.7193809258747 -1392.4963910908089 0 0 0
1057 71 7 2 -641.7989424683971 296.0324343479305 -1361.8721784512923 0 0 0
1713 115 3 -1.5 -616.8391421111934 307.79310478245617 -1405.9798881262602 0 0 0
1722 115 12 0 -595.4175036757291 350.46199608728455 -1385.9148063429896 0 0 0
1059 71 9 0 -533.9340507445762 349.7355203288449 -1352.2126542038516 0 0 0
1061 71 11 1 -592.5626246863071 316.6805381905002 -1352.7923929268864 0 0 0
4929 329 9 0 -1836.0589848350676 420.6550809451628 -1358.1090932744305 0 0 0
4931 329 11 1 -1826.879269052117 414.8293999533741 -1423.8521642162636 0 0 0
1720 115 10 1 -547.754496400876 386.75095643390404 -1372.4447136766971 0 0 0
1065 71 15 0 -499.2442772531318 396.2888412768737 -1393.6675759656423 0 0 0
1717 115 7 2 -497.9943105280662 420.0723486021094 -1359.9952194846535 0 0 0
1721 115 11 1 -451.5338106919279 447.7496008717322 -1355.4954191576699 0 0 0
1052 71 2 0 -447.6738705133527 480.66173841976325 -1386.3025497293909 0 0 0
1719 115 9 0 -404.1471630529298 492.0362696241807 -1353.5262252764771 0 0 0
1054 71 4 0 -439.3892410536995 535.5986047235389 -1363.3823596997963 0 0 0
1716 115 6 -0.5 -378.5815925962582 540.2775618217437 -1367.0888405573908 0 0 0
1724 115 14 -1.5 -385.5758770109068 581.412242515762 -1382.6876502734199 0 0 0
5281 353 1 0 -2683.180510401793 730.3230897270986 -1374.8280292702711 0 0 1
1419 95 9 0 -1756.0753548859334 742.9873098286871 -1353.6859807295696 0 0 0
1425 95 15 0 -1814.768516806938 775.2914487700717 -1393.7438823210246 0 0 0
1412 95 2 0 -1847.4611478597346 824.6455260549843 -1422.7392869503776 0 0 0
1416 95 6 -0.5 -1751.5109112000937 793.7295448679429 -1369.486694815262 0 0 0
1424 95 14 -1.5 -1726.7733823021224 829.9883767481218 -1368.4954364417504 0 0 0
4244 283 14 -1.5 -2059.6897894498793 1048.1404345924645 -1368.2375565481034 0 0 0
4365 291 15 0 -2106.8748657091483 1118.721210984917 -1414.4907843332705 0 0 0
4356 291 6 -0.5 -2058.640009821576 1081.0181626567394 -1396.8898716996312 0 0 0
4359 291 9 0 -2080.8662690893393 1122.1552403336011 -1364.9723034306564 0 0 0
4481 299 11 1 -2031.864899202805 1052.5030308691503 -1399.8672957504655 0 0 0
4236 283 6 -0.5 -2050.0498467088114 1089.0207696826105 -1351.8194031869587 0 0 0
4364 291 14 -1.5 -2026.59881393115 1065.5171699031055 -1424.4611323713516 0 0 0
4264 285 4 0 -281.9445042728379 1234.4452585698655 -1380.6428696825296 0 0 0
2407 161 7 2 -2277.425462248005 1436.4546959538668 -1417.0405654173044 0 -1 0
2411 161 11 1 -2250.3786592140873 1454.2709419423666 -1373.436651154657 0 -1 0
2565 171 15 0 -981.6697231416174 -1301.9192258344178 -1336.7454014661885 0 0 1
3778 252 13 -0.5 -1896.7562764210138 -1208.5420526222674 -1296.2570686735578 0 0 0
3768 252 3 -1.5 -1897.877590877957 -1233.7596570884164 -1330.7878063018168 0 0 0
2557 171 7 2 -1124.949026212315 -1210.4642742672306 -1333.7625908915336 0 0 1
2561 171 11 1 -1076.3374396277895 -1233.5306550669936 -1339.4034921641967 0 0 1
2562 171 12 0 -1224.5317462510457 -1140.8349449139237 -1327.0768940824494 0 0 1
2560 171 10 1 -1177.1830450312377 -1178.3689801859152 -1327.633443442602 0 0 1
2553 171 3 -1.5 -1248.264869092265 -1099.277887297488 -1310.4674323468018 0 0 1
5528 369 8 0 -2718.350476344022 -604.2981360345814 -1280.213507575311 0 0 0
5521 369 1 0 -2679.3538532383077 -635.5100713697728 -1277.9860096880132 0 0 0
5523 369 3 -1.5 -2722.2942424792213 -429.3672167314586 -1307.1643234106425 0 0 0
5533 369 13 -0.5 -2716.8425733937997 -394.10805987676383 -1330.770845169136 0 0 0
1609 108 4 0 -1146.1323956784347 -426.6203444217621 -1305.1834198878253 0 0 0
916 62 1 0 -998.5216370813537 -435.15923668152317 -1326.6311906307712 0 0 0
923 62 8 0 -978.3162871384337 -423.93438615198255 -1279.0234173198849 0 0 0
254 17 14 -1.5 -922.7577949776187 -445.40267015769086 -1282.1433156896665 0 0 0
969 65 9 0 -2526.0800073016253 -229.15646218827723 -1341.4366687809909 0 0 0
966 65 6 -0.5 -2498.1418082903206 -187.0268179217222 -1326.573395242176 0 0 0
975 65 15 0 -2519.9999679633843 -208.5124602783576 -1276.1114788335815 0 0 0
974 65 14 -1.5 -2467.4151824773317 -170.287287206167 -1298.7153063907713 0 0 0
2932 196 7 2 -2442.2236578232555 -177.21790994661637 -1330.3655324299261 0 0 0
2936 196 11 1 -2394.72618247694 -166.66936550532512 -1306.031194289027 0 0 0
653 44 8 0 -93.81620115488555 -152.50404185737594 -1277.118347389998 0 0 0
646 44 1 0 -69.86725473320064 -175.34173032249677 -1297.6220125417399 0 0 0
2934 196 9 0 -2336.954170347096 -133.4716213756409 -1288.2094453714815 0 0 0
4924 329 4 0 -2015.5138270144862 305.3415238326289 -1337.1775926407065 0 0 0
4922 329 2 0 -1966.0320760370448 348.6994996625642 -1333.2947983994359 0 0 0
1715 115 5 0 -647.5622759968468 347.35432161565114 -1321.5627924893984 0 0 0
4935 329 15 0 -1900.3723968566824 387.7169351140349 -1329.5445423455303 0 0 0
4926 329 6 -0.5 -1862.7336282968176 430.7884047742609 -1310.4739880770053 0 0 0
1064 71 14 -1.5 -462.4191029076778 407.78892941146705 -1343.2722196581904 0 0 0
1056 71 6 -0.5 -499.26107093776244 386.4077889802495 -1333.9847781481417 0 0 0
1411 95 1 0 -1477.9504080944307 500.236628948283 -1336.0312583982652 0 0 0
1725 115 15 0 -330.22816414711525 493.94824113365644 -1348.2555796413092 0 0 0
1712 115 2 0 -281.54106098737685 504.4851340168522 -1307.1232608495661 0 0 0
1714 115 4 0 -242.28897547097813 502.11773483447274 -1275.2963732048386 0 0 0
1420 95 10 1 -1708.1649360156687 581.3119472082469 -1287.2860345389468 0 0 0
1418 95 8 0 -1503.782314706371 531.3911661645366 -1299.8820131499176 0 0 0
1415 95 5 0 -1574.7861571458423 546.907464041197 -1275.4638297546974 0 0 0
1417 95 7 2 -1725.1105263659074 635.9206929362479 -1310.2422010103553 0 0 0
1421 95 11 1 -1741.3850263636014 685.7136291464037 -1323.8411166719934 0 0 0
4485 299 15 0 -2025.0970030027675 1016.6170584390275 -1283.8350581204973 0 0 0
4479 299 9 0 -2002.5284693868784 1047.0341812570418 -1343.158360647009 0 0 0
4476 299 6 -0.5 -1976.258648504665 1018.6243752675904 -1306.6377475399581 0 0 0
4484 299 14 -1.5 -1962.4550853387495 979.0392785429823 -1290.7645407285847 0 0 0
4245 283 15 0 -2027.4088757624859 1062.9943832648653 -1303.879270182338 0 0 0
4361 291 11 1 -2100.4172880926963 1150.73497189748 -1309.0825426490949 0 0 0
4239 283 9 0 -2052.5074305259777 1126.1314300176775 -1313.9154055466227 0 0 0
4262 285 2 0 -307.22027343085654 1222.7694834712186 -1328.0224057107628 0 0 0
4261 285 1 0 -703.5290322710691 1375.2436633689135 -1292.4088301147965 0 0 0
2409 161 9 0 -2227.3957334460592 1470.922118193744 -1312.02213798953 0 -1 0
2402 161 2 0 -2279.7102579922353 -1431.8008201975151 -1244.5147328754333 0 0 0
2415 161 15 0 -2248.7213062029705 -1479.7567269683843 -1260.1032301977532 0 0 0
2414 161 14 -1.5 -2225.0655269707945 -1498.8433114908578 -1221.5033311090167 0 0 0
3621 242 6 -0.5 -114.33447704845238 -1482.3683538512855 -1220.5925918881892 0 0 0
3630 242 15 0 -104.4597690684813 -1445.6860319957118 -1200.403744201725 0 0 0
3629 242 14 -1.5 -73.90855418136233 -1479.542079079885 -1239.4813688965291 0 0 0
2404 161 4 0 -2322.415544267227 -1389.5711092312936 -1239.6179484506856 0 0 0
3617 242 2 0 -66.307575240077 -1409.565901388706 -1205.293890215763 0 0 0
3619 242 4 0 -36.89296369097266 -1378.0098829279616 -1226.5200331049825 0 0 0
2563 171 13 -0.5 -1263.969893922839 -1094.0185413946085 -1271.1512289946604 0 0 1
244 17 4 0 -811.8677058703412 -609.0997407808569 -1205.961729695071 0 0 0
5525 369 5 0 -2740.336134005428 -536.7998242131235 -1260.3867229792834 0 0 0
1619 108 14 -1.5 -1069.263881571331 -543.7994219443757 -1210.8645144879888 0 0 0
1611 108 6 -0.5 -1106.0063655698195 -567.1551042712858 -1202.1030320585405 0 0 0
242 17 2 0 -853.80920676435 -565.8227300615547 -1223.0716082385763 0 0 0
1620 108 15 0 -1138.7259493278866 -518.4414911772019 -1214.2259713536994 0 0 0
1607 108 2 0 -1132.7570859345126 -455.02202780709615 -1253.02556396442 0 0 0
249 17 9 0 -987.4908004021933 -484.83248743819615 -1224.4907977890568 0 0 0
251 17 11 1 -1049.1016413976422 -502.3733990777803 -1212.9904067472964 0 0 0
246 17 6 -0.5 -945.7461825521171 -474.30153288745504 -1257.2599319538265 0 0 0
255 17 15 0 -927.359002765975 -511.15380187980367 -1213.1511463711258 0 0 0
5532 369 12 0 -2729.250062975469 -440.8722861880788 -1258.63165597255 0 0 0
241 17 1 0 -1404.556678883392 -418.7836062610497 -1222.0245915865703 0 0 0
248 17 8 0 -1335.4704401219926 -434.69436550940185 -1235.5691703428322 0 0 0
920 62 5 0 -895.3169925435636 -435.7350860950305 -1241.7769218203982 0 0 0
2940 196 15 0 -2282.0660018310714 -168.0682523386681 -1237.3835874890804 0 0 0
3121 209 1 0 -1259.8292121875897 -164.99602640028098 -1230.3101789709885 0 0 0
5431 363 1 0 -497.2823227570179 -188.80284392210203 -1244.161115966795 0 0 0
2931 196 6 -0.5 -2295.1117268723856 -123.47571245475149 -1263.1383255581857 0 0 0
2939 196 14 -1.5 -2254.6849282529947 -132.932650857262 -1247.5066184168559 0 0 0
3128 209 8 0 -1249.594412789988 -109.71496809900657 -1208.2925999877284 0 0 0
658 44 13 -0.5 -208.2186707326838 -110.7388839079794 -1228.4451442743095 0 0 0
650 44 5 0 -127.5220102181199 -126.87811051084942 -1217.6241947373512 0 0 0
1711 115 1 0 -673.6757694842547 296.13905185481696 -1207.244202341244 0 0 0
1718 115 8 0 -691.8508937500367 322.11248916187714 -1268.096360111797 0 0 0
4934 329 14 -1.5 -1883.3106620050103 416.4494145299417 -1274.0398850533043 0 0 0
1423 95 13 -0.5 -1685.7306221671531 444.60313529133214 -1265.4251751169015 0 0 0
1413 95 3 -1.5 -1665.0947855418506 482.027846885493 -1267.8396696460447 0 0 0
1422 95 12 0 -1675.7307821484007 529.1234958100094 -1263.7969800774558 0 0 0
4472 299 2 0 -2029.9227268481466 966.486271725932 -1226.3414786337325 0 0 0
4232 283 2 0 -1979.2907142854115 1023.9333092151791 -1261.6534323513317 0 0 0
4234 283 4 0 -1950.0250649578777 1031.2868855001393 -1217.1982509434404 0 0 0
4357 291 7 2 -2113.708645060417 1184.23193600163 -1267.997870578364 0 0 0
4241 283 11 1 -2071.924419113743 1173.4055219305576 -1271.8500201088857 0 0 0
5626 376 1 0 -1040.5214957884696 1143.4768715472746 -1223.8162821746087 0 0 0
4351 291 1 0 -2336.925915827333 1232.6231748409261 -1239.1676553720622 0 0 0
4360 291 10 1 -2133.479946435807 1223.5837566366401 -1224.4447832521826 0 0 0
4237 283 7 2 -2086.456492049379 1207.0273446569072 -1232.1356725504513 0 0 0
4185 279 15 0 -561.3866771210371 1266.6382409974526 -1230.2415747812781 0 0 0
4172 279 2 0 -508.47297096936427 1248.3443450211873 -1241.2712732215819 0 0 0
4904 327 14 -1.5 -489.84005602316483 1271.1089635762373 -1201.0072035173368 0 0 0
4174 279 4 0 -458.6007956472926 1255.9098476152874 -1229.6510821385978 0 0 0
4275 285 15 0 -319.3666607508394 1250.0028088638737 -1264.886081320305 0 0 0
4266 285 6 -0.5 -312.6896909859201 1269.321118715616 -1215.207336000971 0 0 0
4268 285 8 0 -690.1037329240075 1320.908388385593 -1265.8445446243732 0 0 0
5379 359 9 0 -412.7802635122239 1284.5460525341634 -1226.0422365622196 0 0 0
5376 359 6 -0.5 -360.9182176534171 1279.6410471055465 -1236.772494232336 0 0 0
5385 359 15 0 -359.20071797870605 1335.2917377861734 -1231.9541763398126 0 0 0
5384 359 14 -1.5 -322.2249659179895 1297.6408149369931 -1249.2970890938286 0 0 0
4274 285 14 -1.5 -285.9181300644681 1304.0229049984987 -1223.8016997376908 0 0 0
5372 359 2 0 -300.345170901461 1358.1503611832595 -1202.859476013337 0 0 0
2406 161 6 -0.5 -2225.3261693949307 1474.488460276696 -1257.0680498888796 0 -1 0
3624 242 9 0 -150.88848840917393 -1462.0402429923533 -1184.8485771719645 0 0 0
3626 242 11 1 -201.09433396980702 -1426.9302327986015 -1158.6041209819057 0 0 0
3622 242 7 2 -239.2770275888593 -1391.763188981096 -1145.7035042942655 0 0 0
3625 242 10 1 -286.49560245630585 -1358.223717265745 -1126.909915725529 0 0 0
3856 258 1 0 -410.616133442387 -1268.9617362766733 -1148.7422290556972 0 0 0
3628 242 13 -0.5 -362.91461677918886 -1258.6300425086733 -1150.5326401368814 0 0 0
2662 178 7 2 -31.930555471447 -862.00049167909 -1149.7515121668312 0 0 0
2660 178 5 0 -197.2647044572308 -774.4846010911807 -1132.4047628503292 0 0 0
1618 108 13 -0.5 -1431.061658977447 -731.8628205535591 -1186.6311930849524 0 0 0
1608 108 3 -1.5 -1416.3087378424386 -698.543173604821 -1164.1466231843772 0 0 0
2663 178 8 0 -256.12946004379995 -741.4564487844183 -1127.7239584258891 0 0 0
1617 108 12 0 -1377.918429298354 -667.6676389648452 -1170.5970812604937 0 0 0
1615 108 10 1 -1320.37688845927 -641.8422275330132 -1162.1295414761103 0 0 0
1612 108 7 2 -1265.8618112564525 -612.6233082399859 -1162.3479774618659 0 0 0
1610 108 5 0 -1446.773602293054 -588.6610004566828 -1157.6049235490352 0 0 0
1616 108 11 1 -1217.7392241951745 -588.3904547101267 -1169.8106327713708 0 0 0
252 17 12 0 -1209.9920342461414 -534.5296216175984 -1137.5859538532557 0 0 0
1614 108 9 0 -1158.7563008906188 -568.8308496900918 -1194.568429736898 0 0 0
250 17 10 1 -1150.74064242967 -527.0041742451626 -1165.3762518499893 0 0 0
245 17 5 0 -1280.5379740329154 -454.2035508144746 -1179.5292468075609 0 0 0
247 17 7 2 -1095.8151081108658 -518.9071871990221 -1190.0593289722128 0 0 0
928 62 13 -0.5 -919.5921419515545 -492.1102343905102 -1138.3502977602757 0 0 0
918 62 3 -1.5 -881.5316476092995 -500.6824649276674 -1155.7139700983887 0 0 0
927 62 12 0 -844.1191651438658 -468.9065052310229 -1167.6582431370575 0 0 0
5530 369 10 1 -2725.5776785414296 -425.3595698746893 -1195.975251990352 0 0 0
5527 369 7 2 -2719.1117785323595 -403.5457602430841 -1138.7163350106214 0 0 0
925 62 10 1 -799.1436013479974 -423.9715911761174 -1148.4514281975282 0 0 0
922 62 7 2 -754.5282982330631 -388.4937000570148 -1126.0248119727032 0 0 0
962 65 2 0 -2499.4054354827545 -187.84171808706543 -1199.2175130104768 0 0 0
964 65 4 0 -2481.6491892959384 -191.0692175892069 -1150.0785854637015 0 0 0
2927 196 2 0 -2285.1651293339937 -215.86609305253924 -1160.2822106898766 0 0 0
5435 363 5 0 -562.1622786575678 -210.0739346797246 -1130.3135742598622 0 0 0
5438 363 8 0 -515.9418975293323 -174.5707115389141 -1190.6537834461876 0 0 0
3125 209 5 0 -1268.0211188251255 -80.15421080739529 -1131.1910394058934 0 0 0
648 44 3 -1.5 -206.2293679538036 -111.3764566994955 -1185.6832056325657 0 0 0
657 44 12 0 -167.79550792050594 -117.89728018880483 -1158.848770616853 0 0 0
3016 202 1 0 -857.0538233673298 391.1840135226433 -1151.7808085660918 0 0 0
3023 202 8 0 -808.6224421257084 379.48450274530586 -1140.8170873392403 0 0 0
4081 273 1 0 -1009.5801151975006 712.3232042140836 -1129.016346569218 0 0 0
4663 311 13 -0.5 -1279.1334637900063 774.584282883919 -1168.8669456790344 0 0 0
4653 311 3 -1.5 -1259.1710836460702 784.7112683504986 -1132.1390988533155 0 0 0
4088 273 8 0 -1034.1547795235413 770.9067981281066 -1165.195708058481 0 0 0
4085 273 5 0 -1020.2171912314947 851.2508054558995 -1135.8935466412374 0 0 0
4066 272 1 0 -2624.6604946775956 928.9004304319133 -1156.478840616369 0 0 0
4474 299 4 0 -2052.29989369395 924.6364687341113 -1193.4085649663893 0 0 0
5630 376 5 0 -977.0016337909517 1046.9075177815002 -1146.3743940619254 0 0 0
4665 311 15 0 -1003.4959641101701 1007.97264735293 -1128.573757079794 0 0 0
4652 311 2 0 -911.9416003914877 1049.580531537696 -1138.7177087987764 0 0 0
5633 376 8 0 -1013.7304219299922 1096.7406459040726 -1192.2404903022627 0 0 0
4654 311 4 0 -858.504032719878 1057.9213472993385 -1130.9298768991112 0 0 0
4182 279 12 0 -821.946790246934 1116.4088778915493 -1138.2407918989868 0 0 0
4902 327 12 0 -771.5973868254024 1096.1726166228918 -1131.8566538445557 0 0 0
4180 279 10 1 -767.1817719428142 1141.0914808460386 -1152.1924306668773 0 0 0
4900 327 10 1 -722.7926632960815 1133.430699679274 -1156.2661444197106 0 0 0
4177 279 7 2 -721.2369475524237 1178.660341216463 -1169.3146054902377 0 0 0
5383 359 13 -0.5 -683.8032327924896 1182.6013472714733 -1127.4342788307256 0 0 0
4273 285 13 -0.5 -681.4753973509381 1195.0795190509982 -1136.5159092220672 0 0 0
5631 376 6 -0.5 -678.06034827524 1174.9967926682173 -1145.5190013371928 0 0 0
4897 327 7 2 -672.2486845776114 1168.2412154220142 -1165.073951577196 0 0 0
4901 327 11 1 -629.7654372492108 1197.552449818832 -1180.026515826161 0 0 0
5639 376 14 -1.5 -636.4206942397107 1186.4838992519674 -1155.875022452779 0 0 0
4358 291 8 0 -2303.300085353018 1256.7486580890347 -1173.0653040538607 0 0 0
4355 291 5 0 -2240.5830839717974 1269.7361612146856 -1169.9046886855956 0 0 0
4362 291 12 0 -2148.884579982301 1269.913062973488 -1184.4160666613086 0 0 0
4240 283 10 1 -2097.3796201289865 1247.7516296717295 -1186.470571804319 0 0 0
5373 359 3 -1.5 -677.2846308841035 1222.5241785748124 -1142.1439372135856 0 0 0
4263 285 3 -1.5 -642.8243062558576 1201.453432346782 -1154.467534733822 0 0 0
4181 279 11 1 -674.9117672115997 1205.9194771252132 -1180.694479869229 0 0 0
4179 279 9 0 -623.8665021221562 1246.4742253286356 -1184.0495545761798 0 0 0
5382 359 12 0 -636.0359300188449 1253.3997908461704 -1137.1077431568076 0 0 0
4272 285 12 0 -598.9283028559952 1222.396664258038 -1143.2652301749856 0 0 0
4899 327 9 0 -574.7518157456365 1232.445156216668 -1194.211939951442 0 0 0
5380 359 10 1 -581.5632588410175 1265.3846476052627 -1162.4219395150517 0 0 0
4270 285 10 1 -537.2853370677498 1229.5005203452793 -1151.5861388425722 0 0 0
4176 279 6 -0.5 -581.5811430918652 1274.9578713097758 -1168.7709546042045 0 0 0
4896 327 6 -0.5 -521.8125188171315 1242.054571004576 -1194.1908456378117 0 0 0
5377 359 7 2 -523.7281994301478 1270.0917921035855 -1184.6203669117401 0 0 0
4267 285 7 2 -479.5091913732303 1239.827087899962 -1171.642010961673 0 0 0
4271 285 11 1 -427.26679766383893 1242.554849390018 -1187.6184400910568 0 0 0
4269 285 9 0 -359.75309907890903 1251.9769391584457 -1194.8187189433338 0 0 0
4238 283 8 0 -2258.851501809408 1348.1998087113977 -1155.8148732237112 0 0 0
4235 283 5 0 -2205.7387722617614 1311.5905075539047 -1167.4576724022265 0 0 0
4242 283 12 0 -2119.901273267672 1280.3675348963154 -1138.469886610474 0 0 0
4353 291 3 -1.5 -2139.3194013768266 1315.8573977853969 -1164.5568677582078 0 0 0
4363 291 13 -0.5 -2100.079891230562 1330.702983446418 -1154.636950378276 0 0 0
4265 285 5 0 -645.8133600798116 1296.7901003929078 -1188.011242017301 0 0 0
4184 279 14 -1.5 -546.7265655057448 1299.8179420887052 -1179.00294913984 0 0 0
4905 327 15 0 -540.0042886907548 1275.718134944006 -1141.95304061874 0 0 0
5381 359 11 1 -471.95918545284553 1278.9389532829014 -1194.8342702868645 0 0 0
5374 359 4 0 -254.46973268917472 1346.6478927086523 -1177.0201530380668 0 0 0
4231 283 1 0 -2281.922239880929 1409.4631171297403 -1150.2831076759958 0 0 0
4243 283 13 -0.5 -2118.3685531020105 1361.3821648329333 -1139.0514920897451 0 0 0
3620 242 5 0 -422.42334438041195 -1388.3243632165083 -1061.547250244197 0 0 0
3860 258 5 0 -372.17285004872684 -1357.1816562330139 -1071.4294483166059 0 0 0
3863 258 8 0 -418.0250208647916 -1306.5742882778547 -1106.2761705635958 0 0 0
3627 242 12 0 -333.12840217155633 -1318.9775916401622 -1103.5116351931154 0 0 0
3618 242 3 -1.5 -355.18724083859837 -1277.4817631995672 -1112.5321545935665 0 0 0
3868 258 13 -0.5 -250.9093949010073 -1338.0360918467259 -1079.4019427189212 0 0 0
1308 88 3 -1.5 -156.84460477672764 -906.8631078944211 -1072.6874226506013 0 0 0
1318 88 13 -0.5 -172.79113823356752 -900.3575794647979 -1111.8469077702337 0 0 0
2658 178 3 -1.5 -168.9137307014083 -870.834096462065 -1055.2564907202839 0 0 0
2665 178 10 1 -85.22668120800084 -853.8387141411778 -1120.2820141768834 0 0 0
2667 178 12 0 -140.97788481088537 -848.2110675880274 -1087.7617104498893 0 0 0
2656 178 1 0 -332.60070247580495 -749.1400371315101 -1118.0489026421787 0 0 0
1306 88 1 0 -191.4260968018071 -704.0317711734183 -1066.1425207730385 0 0 0
253 17 13 -0.5 -1259.5268194080595 -604.8315737874698 -1123.4015688880788 0 0 0
1606 108 1 0 -1585.7432588329518 -580.1083846600362 -1123.5165428860516 0 0 0
1613 108 8 0 -1520.052423132843 -570.4153404167198 -1113.0061460781208 0 0 0
243 17 3 -1.5 -1252.1684576789994 -562.981972485083 -1124.97451475386 0 0 0
5531 369 11 1 -2708.2506848869343 -383.94571174597934 -1089.4745313002975 0 0 0
3388 226 13 -0.5 -731.7345580602635 -418.02354998324944 -1108.4463252939372 0 0 0
3378 226 3 -1.5 -733.8587640458785 -388.59183549750395 -1077.5607171601416 0 0 0
926 62 11 1 -711.6746713152284 -360.72583456086227 -1107.22532402134 0 0 0
3387 226 12 0 -699.4592674151169 -355.07729414801247 -1058.6523269975112 0 0 0
924 62 9 0 -656.8368441945036 -337.9555659574417 -1077.4428368635054 0 0 0
930 62 15 0 -618.0732153529053 -362.6524793790361 -1058.5919019600049 0 0 0
2929 196 4 0 -2271.174952003268 -236.13993875612547 -1118.1694245854903 0 0 0
3380 226 5 0 -756.049610488822 -282.01316869981173 -1075.0997654683997 0 0 0
3122 209 2 0 -911.9312294679298 -214.93592246780364 -1053.3040783045083 0 0 0
655 44 10 1 -144.02861286683566 -153.37580876483332 -1115.1158878489894 0 0 0
652 44 7 2 -108.40012230279227 -179.61907183369794 -1070.590316076306 0 0 0
3020 202 5 0 -779.9028115965281 354.21726566621146 -1076.35893763133 0 0 0
1294 87 4 0 -738.8228559391864 304.324654335756 -1063.0483192721224 0 0 0
3019 202 4 0 -406.0763610105702 353.6214802456508 -1107.822924793748 0 0 0
2399 160 14 -1.5 -600.8774487507694 422.67786652743035 -1064.4345418458795 0 0 0
3017 202 2 0 -424.5245756087404 415.7865375449661 -1083.5591566629598 0 0 0
3024 202 9 0 -534.7007118973352 485.06304249300314 -1077.8310076718567 0 0 0
3030 202 15 0 -469.8361129017554 459.05080200930746 -1081.5778444655239 0 0 0
3021 202 6 -0.5 -497.00585762422025 522.4562237656049 -1095.0903256465203 0 0 0
2389 160 4 0 -528.5957743586523 543.4469658756024 -1066.6933831680108 0 0 0
3029 202 14 -1.5 -454.8606756002794 530.1132220034455 -1105.6211744359591 0 0 0
5161 345 1 0 -1902.3326034364754 695.8021160907601 -1078.5887852977519 0 0 0
4662 311 12 0 -1232.1667388256847 826.1086920177702 -1114.8626941546447 0 0 0
4660 311 10 1 -1190.8928588384122 876.0319696902397 -1122.4291538227296 0 0 0
4073 272 8 0 -2622.897292463714 905.0688290373635 -1099.6213317786085 0 0 0
4657 311 7 2 -1144.5228071786185 916.669933608401 -1121.0518771461404 0 0 0
4093 273 13 -0.5 -1134.505819348314 932.7275928575864 -1087.3180562273185 0 0 0
4083 273 3 -1.5 -1097.1358233635804 942.8470811914437 -1104.7150652307964 0 0 0
4661 311 11 1 -1109.0012974380816 958.1386825432062 -1119.7427743074688 0 0 0
4092 273 12 0 -1048.5494667273338 939.2115056436623 -1093.5414303446842 0 0 0
4090 273 10 1 -995.8822793420197 973.2474759107931 -1083.9144368157024 0 0 0
4659 311 9 0 -1058.6998309631078 992.4520320915428 -1101.3030131462847 0 0 0
4656 311 6 -0.5 -1010.7219089669736 998.0835265394581 -1077.349822038356 0 0 0
5638 376 13 -0.5 -974.6155174599985 982.1413714965178 -1077.5259901662382 0 0 0
2178 146 3 -1.5 -969.5464009692314 1033.6027408570872 -1085.0134845967393 0 0 0
4664 311 14 -1.5 -972.4232976905034 1019.6999999030771 -1079.6284093790357 0 0 0
2188 146 13 -0.5 -943.3816870140105 1022.0708373928286 -1116.840159779646 0 0 0
4087 273 7 2 -939.9644938437816 998.1584192035795 -1083.4962504666314 0 0 0
5628 376 3 -1.5 -949.8005778644784 1010.1482007354055 -1056.0855934213155 0 0 0
5637 376 12 0 -924.7136070139222 1047.6769334345017 -1072.9354622682768 0 0 0
4091 273 11 1 -889.8096277088481 1017.1176958192344 -1087.673977765166 0 0 0
4089 273 9 0 -831.9570442990906 1047.7196581849105 -1078.8250323175328 0 0 0
5164 345 4 0 -2021.76816786851 1095.8262880038178 -1051.6960020064716 0 0 0
2180 146 5 0 -898.2301027981858 1108.8789666485677 -1058.1930660142132 0 0 0
5635 376 10 1 -869.8420257033738 1077.1770224839245 -1082.732846752637 0 0 0