LAMMPS data file via write_data, version 27 Jun 2024, timestep = 12480000, units = real

5730 atoms
15 atom types
5514 bonds
16 bond types
5730 angles
15 angle types

-3000 3000 xlo xhi
-1500 1500 ylo yhi
-1500 1500 zlo zhi

Masses

1 241.19
2 73.54000000000001
3 330.71
4 235.16
5 68.06999999999999
6 353.53
7 223.38
8 41.1
9 216.91
10 155.15
11 147.32
12 264.65
13 300.8
14 326.05
15 85.20999999999999

Pair Coeffs # lj/cut/coul/debye/gpu

1 0.71637 40.7505
2 0.665709 48.1397
3 1.15033 39.2216
4 0.726774 43.8077
5 0.514724 53.3428
6 1.17127 41.7847
7 1.2256 38.5601
8 0.675431 54.5696
9 1.26117 43.78
10 0.939007 42.5209
11 0.960667 41.1825
12 1.30988 48.0761
13 1.36645 37.7114
14 1.35529 39.2179
15 0.592003 47.2602

Bond Coeffs # harmonic

1 0.003 59.228
2 0.008 56.48
3 0.001 69.324
4 3.207 42.88
5 0.11 49.807
6 0.002 74.968
7 0.001 91.635
8 0.145 54.383
9 2.709 44.406
10 1.71 61.679
11 1.625 54.051
12 0.207 66.185
13 0.002 64.76
14 0.079 63.886
15 0.2 40
16 0.2 40

Angle Coeffs # harmonic

1 11.427 158.273
2 50.464 132.042
3 8.207 156.514
4 92.705 149.394
5 100 174.44
6 3.15 145.53
7 48.938 159.031
8 17.401 129.945
9 15.735 56.441
10 60 172.254
11 60.285 168.396
12 11.83 99.091
13 150 107.995
14 27.746 149.925
15 7.483 160.775

Atoms # full

2410 161 10 1 -2198.3037084125094 -1479.0337544582526 -1496.17743348149 0 0 0
2407 161 7 2 -2185.144414448062 -1477.6743549299463 -1435.7580959749407 0 0 0
3616 242 1 0 -301.37770437912957 -1317.5872087693185 -1467.9812567626975 0 0 0
3771 252 6 -0.5 -1706.4597695976026 -1220.5941376712224 -1482.8751316091314 0 0 0
3779 252 14 -1.5 -1718.083732094382 -1260.9868670720011 -1497.473007696021 0 0 0
3776 252 11 1 -1758.2215369915855 -1129.1656021667748 -1427.1804365749585 0 0 0
3774 252 9 0 -1722.2607465584842 -1174.9805711842812 -1459.5340728587814 0 0 0
1815 121 15 0 -2369.946368543019 -721.810361082086 -1436.6163262229484 0 0 0
1802 121 2 0 -2305.5716185419574 -702.5562141366668 -1484.9016266015037 0 0 0
1804 121 4 0 -2256.5966949564804 -672.7588392992889 -1494.943944616299 0 0 0
1803 121 3 -1.5 -2584.426193221727 -463.4220978986893 -1428.9546788889588 0 0 0
2926 196 1 0 -2511.7785774056456 -492.3184635550846 -1471.740788755179 0 0 0
1813 121 13 -0.5 -2553.310942310866 -438.8113366981412 -1445.6433205547273 0 0 0
2933 196 8 0 -2513.9431056845724 -410.790341411514 -1464.4990224239796 0 0 0
2582 173 2 0 -1627.341842213468 -391.9529232653829 -1463.7350469717694 0 0 1
2929 196 4 0 -2156.3808731875065 -260.8341690338787 -1431.2200987916278 0 0 0
1079 72 14 -1.5 -343.7199901180001 -157.39787761065867 -1473.2348712794083 0 0 1
653 44 8 0 -292.54630578584954 -152.66531790348986 -1497.4241019465817 0 0 0
650 44 5 0 -310.95090728890403 -120.64181709517231 -1429.0167143840815 0 0 0
658 44 13 -0.5 -367.7942295351833 -24.630452784070478 -1455.115785422981 0 0 0
1051 71 1 0 -479.36925392633714 281.17914554726497 -1494.5089048738412 0 0 0
1058 71 8 0 -519.0899989222004 330.6639358249085 -1448.4954009620833 0 0 0
4925 329 5 0 -1869.6154736634028 393.4352979900581 -1468.5238691156399 0 0 0
4930 329 10 1 -1914.6636425766628 504.1245918721108 -1459.6922387544532 0 0 0
1423 95 13 -0.5 -1581.54831169345 472.2492129088997 -1453.8118988969513 0 0 0
1422 95 12 0 -1553.707537881056 547.0743612184808 -1427.7448593543431 0 0 0
1411 95 1 0 -1716.3737042591106 659.9647196684936 -1470.6035261960321 0 0 0
1415 95 5 0 -1624.589955604455 606.4911329466704 -1486.8030831431029 0 0 0
4473 299 3 -1.5 -2122.3355723775644 948.8919771508791 -1470.420217142646 0 0 0
4483 299 13 -0.5 -2136.9878431581665 913.301493769347 -1490.184894941185 0 0 0
4482 299 12 0 -2078.5120692154237 969.8577150367504 -1476.0269003710578 0 0 0
4088 273 8 0 -999.9062040211942 956.5800452451156 -1446.3591692296118 0 0 0
4081 273 1 0 -990.0630023108339 913.87327852467 -1490.1299003841962 0 0 0
4480 299 10 1 -2029.9506691526326 993.4386768940881 -1449.6692246912905 0 0 0
4477 299 7 2 -1978.6006573835057 1016.5668191513079 -1425.530169767306 0 0 0
2411 161 11 1 -2174.411947862615 -1474.0711138302927 -1382.4219197913046 0 0 0
3620 242 5 0 -282.25723668276333 -1375.5426036022566 -1357.4893457743926 0 0 0
3623 242 8 0 -274.16502696886255 -1327.8404762089478 -1419.99502827788 0 0 0
3775 252 10 1 -1841.876163712506 -1083.460129690498 -1361.6232619043942 0 0 0
3772 252 7 2 -1798.7270367709998 -1110.3035475615495 -1396.2058843609047 0 0 0
1806 121 6 -0.5 -2414.126532088288 -757.4049935283174 -1409.2775443248383 0 0 0
1814 121 14 -1.5 -2376.653690925273 -779.7616399194487 -1415.6560059388562 0 0 0
1809 121 9 0 -2432.2878521549205 -706.0916830682587 -1394.3331461495063 0 0 0
1807 121 7 2 -2501.7336806701496 -606.313840244577 -1403.5076825517006 0 0 0
1811 121 11 1 -2471.9068838002922 -650.0707768345223 -1395.7402302975272 0 0 0
1810 121 10 1 -2536.0938169667174 -555.4013659521759 -1406.2495741027965 0 0 0
1812 121 12 0 -2570.3113743203135 -504.0556530719372 -1400.9028896028412 0 0 0
2584 173 4 0 -1600.572153438727 -405.26461677240235 -1411.027556957142 0 0 1
2938 196 13 -0.5 -2608.8326632561216 -310.9918707280327 -1351.840469066013 0 0 0
2930 196 5 0 -2530.1141110204217 -369.9797684834481 -1407.518287078407 0 0 0
2927 196 2 0 -2213.637067213636 -263.889853297679 -1400.9536052023136 0 0 0
962 65 2 0 -2454.3812236153685 -162.43192506754812 -1375.325089806188 0 0 0
964 65 4 0 -2446.9188397925236 -115.69343720420068 -1381.9072103353421 0 0 0
648 44 3 -1.5 -338.79508743945115 -15.783527914722445 -1424.826853229339 0 0 0
657 44 12 0 -323.5320573015906 -46.30862044882272 -1388.2438635560898 0 0 0
4928 329 8 0 -1840.4129391474644 361.88188295511645 -1415.2178103975864 0 0 0
4921 329 1 0 -1855.2249313333675 357.2017612551032 -1367.6216622001934 0 0 0
1055 71 5 0 -513.3760558480311 403.78298657911733 -1414.5471813848803 0 0 0
1413 95 3 -1.5 -1574.3285299150261 500.82834705231323 -1422.7988848190562 0 0 0
4931 329 11 1 -1952.6141590477846 582.0320070868758 -1381.9689234734183 0 0 0
4927 329 7 2 -1931.176731145134 544.0530987766773 -1414.5200147175933 0 0 0
1420 95 10 1 -1516.1028231240389 587.5474447587648 -1396.3544508884274 0 0 0
1417 95 7 2 -1479.3301826608165 613.6728509816933 -1353.9244873610942 0 0 0
4085 273 5 0 -1045.4616766991896 972.0641797620539 -1380.010196701146 0 0 0
4481 299 11 1 -1931.0270403940697 1036.124646769267 -1407.422103489877 0 0 0
4479 299 9 0 -1872.4557802666802 1039.9981019795773 -1375.3538404234082 0 0 0
4485 299 15 0 -1837.8371061006135 997.1537542499294 -1374.7866956835144 0 0 0
4474 299 4 0 -1726.0285656931712 977.560989871414 -1370.178165245087 0 0 0
4472 299 2 0 -1779.6617136411628 984.6360697949807 -1360.3113996040202 0 0 0
4652 311 2 0 -977.9362355165407 1077.7060265575797 -1360.7007885033663 0 0 0
4654 311 4 0 -935.3722122966724 1121.7289960312035 -1384.222943994212 0 0 0
4231 283 1 0 -2177.3954521952637 1369.1012767669336 -1352.8317009950495 0 0 0
2409 161 9 0 -2153.0043246387004 -1480.0218007195847 -1320.7344053166692 0 0 0
2415 161 15 0 -2122.325350109565 -1437.9699792216484 -1287.9705128043527 0 0 0
3777 252 12 0 -1892.194478378802 -1058.996078165278 -1331.7040022941696 0 0 0
3778 252 13 -0.5 -1970.5917751533868 -1022.8822725211073 -1311.6081882654755 0 0 0
3768 252 3 -1.5 -1940.9208896613231 -1044.0081954427665 -1335.1909269577657 0 0 0
1805 121 5 0 -2566.7148505182577 -488.80130570447824 -1303.8260918258668 0 0 0
241 17 1 0 -1305.8353950973894 -488.65552511580415 -1323.8666449888713 0 0 0
248 17 8 0 -1275.1591459897338 -522.696600654344 -1314.5473132406628 0 0 0
963 65 3 -1.5 -2805.2761875369465 -322.8094467555309 -1317.2873316834214 0 0 0
973 65 13 -0.5 -2840.56964178446 -307.46177937208284 -1335.3406729136873 0 0 0
972 65 12 0 -2757.7384277388546 -308.0738219300323 -1321.9488079629884 0 0 0
970 65 10 1 -2694.9731470638158 -317.3623949365125 -1322.7051046023807 0 0 0
967 65 7 2 -2633.2424585767885 -312.0252426126573 -1320.4214995707164 0 0 0
2928 196 3 -1.5 -2586.2244199895117 -329.65509905093035 -1320.2885715569564 0 0 0
971 65 11 1 -2579.289636443655 -307.79598677028173 -1321.7695119389984 0 0 0
2937 196 12 0 -2538.443071775926 -341.65893670592584 -1312.496287829929 0 0 0
2935 196 10 1 -2481.533290333408 -315.91046068044915 -1295.8220722651752 0 0 0
974 65 14 -1.5 -2422.4901883979946 -316.52784852869087 -1322.620122475155 0 0 0
2932 196 7 2 -2422.454492422315 -300.054883871087 -1286.985509951729 0 0 0
965 65 5 0 -2765.194797614306 -250.80240104378225 -1307.8664276700779 0 0 0
975 65 15 0 -2482.9474404075954 -241.9390326170706 -1344.8824112703094 0 0 0
969 65 9 0 -2515.4488632974258 -295.38937572348925 -1323.788478102996 0 0 0
966 65 6 -0.5 -2461.7736625730086 -299.19466946147105 -1333.9065571202962 0 0 0
2936 196 11 1 -2369.6727804335665 -289.36746756222703 -1279.860076645643 0 0 0
2931 196 6 -0.5 -2259.7262344332394 -253.57391519052183 -1278.558063974596 0 0 0
2934 196 9 0 -2307.3620931351493 -274.9462039948983 -1289.3302346337393 0 0 0
2940 196 15 0 -2260.885344934518 -287.6340287469151 -1336.0516364939642 0 0 0
2939 196 14 -1.5 -2217.0337065559265 -251.97983568132761 -1289.3686523719678 0 0 0
968 65 8 0 -2784.4754796788793 -198.05152739127536 -1337.6629795207934 0 0 0
961 65 1 0 -2785.1080860619827 -144.86720263159035 -1336.6535297796777 0 0 0
3121 209 1 0 -1152.9547718252625 -117.4482678085486 -1283.3522471258823 0 0 0
655 44 10 1 -307.27848298221755 -55.33452990999716 -1328.500819461215 0 0 0
1718 115 8 0 -266.38416735043177 211.03084534682884 -1291.6223343802358 0 0 0
1711 115 1 0 -242.19825522115133 238.99627904625842 -1343.77666219442 0 0 0
1053 71 3 -1.5 -558.8467109041801 430.33011272830873 -1324.5903985057018 0 0 0
1063 71 13 -0.5 -596.8006135143789 449.80600199568187 -1323.0754814815264 0 0 0
1062 71 12 0 -513.8196193232139 446.9036745077445 -1337.3445873076366 0 0 0
1060 71 10 1 -460.7918110966886 478.14830001973667 -1329.8122873231673 0 0 0
1057 71 7 2 -408.8778858958802 506.4771557958509 -1313.5404889523259 0 0 0
1061 71 11 1 -362.2268284752195 529.6820811072836 -1299.182367268794 0 0 0
1059 71 9 0 -302.1386148908957 546.3762846819199 -1280.7598873026793 0 0 0
1065 71 15 0 -240.52451070358515 529.3817323724412 -1296.7527488841217 0 0 0
1052 71 2 0 -174.31957072890316 527.2673168560465 -1293.7447590411589 0 0 0
1054 71 4 0 -112.1513174779521 536.2847586801937 -1277.9379646043567 0 0 0
4929 329 9 0 -1971.5214484337514 619.5312403782876 -1332.8702250241247 0 0 0
4926 329 6 -0.5 -1992.2099454235095 631.589051910888 -1283.7404488857344 0 0 0
4935 329 15 0 -1928.1704315966495 655.4965054959737 -1289.743917296197 0 0 0
1421 95 11 1 -1444.5956019605649 641.7859551750302 -1323.0986630567536 0 0 0
4922 329 2 0 -1876.7833513947157 692.2754962238139 -1289.9611519361354 0 0 0
4924 329 4 0 -1818.6282188222006 702.4240191947677 -1291.2206879061453 0 0 0
4083 273 3 -1.5 -1082.8681557827906 949.2746825264248 -1283.8579000772781 0 0 0
4093 273 13 -0.5 -1124.5217641229606 941.9515412622334 -1278.249584429047 0 0 0
4476 299 6 -0.5 -1836.0816704791869 1041.5928080004167 -1335.1391867302536 0 0 0
4659 311 9 0 -1059.5030515355263 1047.4377047898581 -1284.82730008523 0 0 0
4092 273 12 0 -1060.7892592239082 993.2526995265653 -1289.9129752121098 0 0 0
5638 376 13 -0.5 -981.9072429060889 1039.0786977296796 -1279.9535635171226 0 0 0
4665 311 15 0 -1019.3581048522348 1045.278647880491 -1334.711652475126 0 0 0
4484 299 14 -1.5 -1799.897671102694 1059.466816894013 -1316.5145929142604 0 0 0
4656 311 6 -0.5 -1015.5465246906052 1077.0508549142394 -1286.2133880065244 0 0 0
4664 311 14 -1.5 -971.387697424194 1082.1825315948067 -1288.133894599081 0 0 0
5628 376 3 -1.5 -963.21426734962 1073.546569637685 -1297.2159905078768 0 0 0
5637 376 12 0 -936.6943971064119 1108.5742811010987 -1277.6434417694124 0 0 0
4356 291 6 -0.5 -1952.297286117694 1153.0520801052057 -1276.9925957100002 0 0 0
4359 291 9 0 -2003.4310576145913 1177.3911849187402 -1275.870563663593 0 0 0
4238 283 8 0 -2227.8967246073735 1365.9836023174432 -1298.706568565514 0 0 0
2406 161 6 -0.5 -2143.304923744927 -1485.8601357379803 -1265.664223149637 0 0 0
2414 161 14 -1.5 -2150.578946245869 -1470.4598772572435 -1224.9023522291916 0 0 0
3622 242 7 2 -155.38353154159313 -1442.9417090680536 -1230.770596043515 0 0 0
3626 242 11 1 -110.07011157225186 -1470.5685737806382 -1223.4806670503935 0 0 0
2402 161 2 0 -2106.162420817352 -1423.2581000653631 -1254.852046363821 0 0 0
3618 242 3 -1.5 -310.88138628679434 -1368.626211023047 -1237.8477087232743 0 0 0
3627 242 12 0 -269.46557328334524 -1392.4962518673483 -1258.0515520867161 0 0 0
3625 242 10 1 -210.60558039273243 -1421.493070753393 -1249.9871346647772 0 0 0
3628 242 13 -0.5 -314.8726958881489 -1330.5933789836615 -1218.8911590032592 0 0 0
3770 252 5 0 -1884.9156266904085 -1102.4002375795467 -1226.4840763960133 0 0 0
245 17 5 0 -1261.3073082989988 -575.1187476295202 -1262.8515434817507 0 0 0
1808 121 8 0 -2586.676668650889 -490.0348722206557 -1226.8554674813095 0 0 0
3128 209 8 0 -1154.557031951235 -90.79549551545051 -1218.671067202855 0 0 0
652 44 7 2 -292.1626258345983 -56.84678397286913 -1267.940845771538 0 0 0
656 44 11 1 -275.87778337883833 -59.87082101546007 -1216.5343213316698 0 0 0
1715 115 5 0 -308.3720799082942 232.7734513724196 -1229.719629404243 0 0 0
1714 115 4 0 -18.0396967437692 451.95603518524433 -1213.073038935021 0 0 0
1056 71 6 -0.5 -263.11703536465546 581.3916145096747 -1273.162995701187 0 0 0
4934 329 14 -1.5 -2022.2100499134958 650.3672463500009 -1256.213123157175 0 0 0
1419 95 9 0 -1407.6778462961074 663.2098161684834 -1272.8577731053988 0 0 0
1064 71 14 -1.5 -241.46047538316785 607.6382356072969 -1244.8053797436066 0 0 0
1425 95 15 0 -1436.7705209099474 683.2802854737747 -1210.9003931346306 0 0 0
1416 95 6 -0.5 -1392.439633592572 699.9380780273406 -1230.2916361412892 0 0 0
1424 95 14 -1.5 -1397.925796345558 739.3904975847948 -1210.5136194961872 0 0 0
4693 313 13 -0.5 -2928.703582034416 850.9234624220171 -1233.1312760898804 0 0 0
4663 311 13 -0.5 -1330.217241158032 869.4085034109605 -1257.7205882572055 0 0 0
4653 311 3 -1.5 -1287.081372278834 871.4408755674332 -1252.8480189160664 0 0 0
4662 311 12 0 -1258.5383475035735 913.0018868874097 -1243.9157300906425 0 0 0
4660 311 10 1 -1201.6777923121488 942.5762855686569 -1243.87352748967 0 0 0
4657 311 7 2 -1148.4187816671608 969.8420222055995 -1258.6273022963533 0 0 0
4658 311 8 0 -1351.6809958866977 1045.3812071509699 -1205.2215779521368 0 0 0
4655 311 5 0 -1337.1465214044156 981.7609948684227 -1209.9685704584533 0 0 0
4661 311 11 1 -1104.8054750450822 999.1351332936777 -1270.9037278854273 0 0 0
4090 273 10 1 -1014.3011303471945 1030.6367078770843 -1272.7454477301403 0 0 0
4352 291 2 0 -1989.0702486092043 1102.2452454622803 -1238.9566366303739 0 0 0
4087 273 7 2 -967.4221194567253 1066.1610675101263 -1252.9749379637963 0 0 0
4091 273 11 1 -926.571621768766 1089.1965419623107 -1225.9850144158265 0 0 0
4903 327 13 -0.5 -830.3611208648937 1121.884849307147 -1235.445382769389 0 0 0
4089 273 9 0 -869.23279612585 1116.829400540464 -1206.531461010561 0 0 0
4893 327 3 -1.5 -799.958333209139 1105.8409048255617 -1209.9250803578639 0 0 0
4183 279 13 -0.5 -819.1573026758143 1119.575216096511 -1221.325308076321 0 0 0
4365 291 15 0 -2002.5111652948854 1130.9578904176133 -1264.1787471488205 0 0 0
4239 283 9 0 -2019.0139189178287 1172.123378752594 -1232.6084906319616 0 0 0
4236 283 6 -0.5 -1967.7585083337713 1151.991073689615 -1234.0811455349826 0 0 0
4244 283 14 -1.5 -1925.0880969066911 1154.7756461414606 -1225.4700399159346 0 0 0
4364 291 14 -1.5 -1909.4588952712222 1150.4021036167396 -1263.7326397519842 0 0 0
4232 283 2 0 -1903.7233841008067 1197.5247330358231 -1259.8549423920517 0 0 0
4234 283 4 0 -1851.6168935630615 1182.9867376522504 -1270.1599767782302 0 0 0
5630 376 5 0 -1039.6644749350116 1172.4534816437167 -1205.3310658900277 0 0 0
5635 376 10 1 -878.4811166813649 1130.6339107291228 -1249.815452354814 0 0 0
5632 376 7 2 -831.6060326725699 1156.3068690257824 -1217.5209824939498 0 0 0
4173 279 3 -1.5 -780.5399426161428 1131.7772590215986 -1236.683345250616 0 0 0
4094 273 14 -1.5 -790.5431711869657 1166.8803751501114 -1213.438134449967 0 0 0
4182 279 12 0 -742.5492098624873 1161.2570260954403 -1220.6329346750358 0 0 0
4360 291 10 1 -2150.3689801238793 1252.4141000158452 -1206.5312723623842 0 0 0
4357 291 7 2 -2100.758655629813 1230.5855855378184 -1235.322545630423 0 0 0
4361 291 11 1 -2053.134155748079 1211.1425338086947 -1253.5549955908994 0 0 0
4241 283 11 1 -2071.4547205806916 1204.8833976697188 -1210.5453021643812 0 0 0
4245 283 15 0 -1969.5663522206748 1201.6998811828287 -1247.8539100556889 0 0 0
4175 279 5 0 -800.4539738302014 1260.7902368042119 -1232.5103985219405 0 0 0
4261 285 1 0 -688.2510848475083 1200.472762272931 -1239.9709668576734 0 0 0
4268 285 8 0 -640.949982169412 1210.414848995905 -1241.1597736649837 0 0 0
4265 285 5 0 -604.4639170633842 1248.774950708744 -1217.3391742098909 0 0 0
4178 279 8 0 -865.1194457654597 1302.0900077988647 -1222.018856417496 0 0 0
3619 242 4 0 -52.003799338715915 1277.568863696205 -1218.2514306005182 0 -1 0
3617 242 2 0 -45.31117665324425 1331.6403400194733 -1200.5635333336968 0 -1 0
4235 283 5 0 -2220.0692512189917 1352.7624519904691 -1226.09300974309 0 0 0
4171 279 1 0 -879.352557465436 1368.7620322772536 -1227.1733350357679 0 0 0
3624 242 9 0 -53.40765869253202 1495.7798545711962 -1227.3021790012522 0 -1 0
2404 161 4 0 -2095.095982912418 -1442.170836509001 -1189.8974532914065 0 0 0
3773 252 8 0 -1895.22624057678 -1113.3651807314177 -1131.6505432023812 0 0 0
2663 178 8 0 -294.410892971877 -752.8433004071801 -1188.7838934437796 0 0 0
2660 178 5 0 -287.1986502394369 -796.1894894858472 -1128.2215036501793 0 0 0
2664 178 9 0 -5.3738829487537325 -810.4396935604765 -1156.2170408909074 0 0 0
2666 178 11 1 -62.90346951325353 -814.7896418146888 -1126.1769151676124 0 0 0
2656 178 1 0 -273.96964260700486 -696.7167436608336 -1197.7576762933033 0 0 0
1618 108 13 -0.5 -1506.1668816153751 -670.7916759262989 -1164.1870395532487 0 0 0
1608 108 3 -1.5 -1487.6242337396093 -634.5061042781516 -1178.1847000074188 0 0 0
1617 108 12 0 -1455.5398496534667 -601.5145600280135 -1158.694557546156 0 0 0
1615 108 10 1 -1402.0767380345067 -569.9745367044084 -1152.0563591901662 0 0 0
1612 108 7 2 -1344.8129517228717 -546.1654277105415 -1150.9445578034693 0 0 0
243 17 3 -1.5 -1307.9543252592173 -565.0604506665267 -1146.5923802338089 0 0 0
1616 108 11 1 -1293.837942223484 -529.0256229838942 -1144.657099093398 0 0 0
252 17 12 0 -1261.6957811594332 -568.2420358692585 -1161.8597689866197 0 0 0
250 17 10 1 -1201.5512247854929 -560.4691842649293 -1144.3032438541202 0 0 0
1614 108 9 0 -1228.7085546709416 -525.3201469738455 -1145.693634024304 0 0 0
1619 108 14 -1.5 -1149.407757356318 -579.5762758430374 -1157.578213013977 0 0 0
1611 108 6 -0.5 -1178.1059077755256 -546.4605408481751 -1149.4059792538808 0 0 0
247 17 7 2 -1141.5496071879488 -548.2852309077726 -1134.580962860316 0 0 0
1801 121 1 0 -2557.798740809864 -494.5009612821344 -1177.995586185811 0 0 0
5061 338 6 -0.5 -666.5596072042822 -106.79004712772401 -1135.2093342866624 0 0 0
5069 338 14 -1.5 -637.0320649417251 -139.41138438148303 -1139.7167326936105 0 0 0
3125 209 5 0 -1175.1243147190876 -63.427235483645866 -1156.3815999119377 0 0 0
5057 338 2 0 -555.3156125466747 -44.87503116300533 -1131.7197404730534 0 0 0
5059 338 4 0 -506.36383501219495 -39.835634575475424 -1167.231105690092 0 0 0
654 44 9 0 -238.00045452441927 -50.74008006554001 -1163.162149482601 0 0 0
660 44 15 0 -192.2498292057491 -72.1888945245969 -1163.948729020562 0 0 0
651 44 6 -0.5 -194.0023109918257 -35.74703851389897 -1132.5814707871102 0 0 0
659 44 14 -1.5 -149.81079698557613 -32.867974520893796 -1126.8775926619044 0 0 0
1723 115 13 -0.5 -437.43077347088047 292.81890503254397 -1152.2521938589332 0 0 0
1713 115 3 -1.5 -399.59818525730674 304.7214832378104 -1169.7910329962003 0 0 0
1722 115 12 0 -354.06342151803443 303.3943596793013 -1152.4466703395317 0 0 0
1720 115 10 1 -311.17520279860946 339.398006431024 -1126.8192647648916 0 0 0
1712 115 2 0 -57.77339238415817 439.4399938080686 -1178.8210981164777 0 0 0
1291 87 1 0 -1047.0429533089114 450.0824981126955 -1160.3925127292796 0 0 0
1725 115 15 0 -127.07964775932966 465.03041783472185 -1133.3021110993554 0 0 0
1412 95 2 0 -1439.6987850176554 721.0347997660881 -1141.3343229512732 0 0 0
4683 313 3 -1.5 -2924.3416988604804 828.1211425946949 -1197.2742509609275 0 0 0
4692 313 12 0 -2910.1629932823735 838.8959438750239 -1147.069470070504 0 0 0
4066 272 1 0 -2720.9715451433367 832.1039431241121 -1152.5041786141358 0 0 0
4354 291 4 0 -1966.4332747542414 1080.45303286856 -1186.6374379565352 0 0 0
4651 311 1 0 -1379.634509757231 1092.6731956342826 -1179.1904204886903 0 0 0
4095 273 15 0 -813.1289099830287 1087.1549595064962 -1170.7516114790808 0 0 0
4082 273 2 0 -777.5109931240876 1073.4841069558909 -1140.8677422671803 0 0 0
5626 376 1 0 -1140.5187310854183 1128.3266940223489 -1136.0744199963387 0 0 0
5633 376 8 0 -1110.0625127938588 1169.1119652662182 -1169.2631074623025 0 0 0
4086 273 6 -0.5 -826.0413069130756 1145.448255445541 -1196.6609094501416 0 0 0
5636 376 11 1 -786.7413606851524 1181.49768173184 -1199.9819743525766 0 0 0
4902 327 12 0 -774.5820584317166 1131.9580779365888 -1176.4705001905534 0 0 0
4180 279 10 1 -686.4158100258035 1175.0586475222483 -1194.261859159003 0 0 0
4900 327 10 1 -716.2602399147661 1159.219445740101 -1156.465245562696 0 0 0
4897 327 7 2 -662.8927361464487 1186.6778532605817 -1144.7116966521241 0 0 0
4177 279 7 2 -628.8229800524146 1181.719232524262 -1174.7336955263415 0 0 0
4273 285 13 -0.5 -625.4124252448098 1198.834235843549 -1136.0526746914807 0 0 0
4181 279 11 1 -577.1822843134682 1182.1724266804795 -1162.4012574138783 0 0 0
4179 279 9 0 -513.3252800424701 1193.0531682239407 -1148.367869575648 0 0 0
5374 359 4 0 -188.50130488059744 1167.9701880595294 -1142.2943385523283 0 0 0
4237 283 7 2 -2103.2823239628624 1242.4964490952489 -1188.823488783569 0 0 0
5640 376 15 0 -707.9685681145223 1207.79078752414 -1136.4792829623502 0 0 0
5634 376 9 0 -731.2542710751401 1213.5586554770996 -1183.311242707343 0 0 0
5631 376 6 -0.5 -677.7541433367818 1225.7368573829265 -1178.2109933125846 0 0 0
5383 359 13 -0.5 -667.7900466988564 1226.2854754891973 -1150.9858767173478 0 0 0
5373 359 3 -1.5 -634.9554063281272 1234.1038893391078 -1177.4562162359105 0 0 0
5639 376 14 -1.5 -641.1022417940961 1218.5991374741525 -1155.0877656652588 0 0 0
4901 327 11 1 -614.2203514980368 1207.3533844617086 -1131.403174353943 0 0 0
4263 285 3 -1.5 -620.4089956953757 1241.0476438528449 -1129.4942691415417 0 0 0
5382 359 12 0 -588.1628913122156 1226.8270122694175 -1172.9391485958872 0 0 0
5380 359 10 1 -528.916571673202 1248.671356239662 -1166.6258642383495 0 0 0
4272 285 12 0 -587.0996124607328 1271.9442076179503 -1147.1818566594966 0 0 0
5377 359 7 2 -470.3507225141942 1259.5178828495812 -1152.472363098335 0 0 0
4176 279 6 -0.5 -469.50317069555933 1225.6857348401954 -1140.7109610677874 0 0 0
4904 327 14 -1.5 -467.98771693976244 1230.2005852121188 -1125.8858328327492 0 0 0
5381 359 11 1 -418.9949611284048 1266.8103723169747 -1138.5384985884177 0 0 0
5385 359 15 0 -294.4057911883473 1233.322081870083 -1146.047198320518 0 0 0
5372 359 2 0 -232.3167439885959 1207.5219657990788 -1148.4371090104844 0 0 0
4362 291 12 0 -2188.442802720798 1280.0501994396436 -1169.0800278200356 0 0 0
4353 291 3 -1.5 -2222.9363069802134 1311.3101392881633 -1167.4351744727235 0 0 0
4242 283 12 0 -2177.3575662609737 1336.6201441782202 -1152.3568964899464 0 0 0
4240 283 10 1 -2134.511921105739 1292.7494709253426 -1168.5661417943538 0 0 0
4270 285 10 1 -523.4103848182799 1290.0682841065727 -1141.167708102158 0 0 0
4267 285 7 2 -464.24538222471875 1301.0168307574813 -1127.7191981088142 0 0 0
5379 359 9 0 -353.6952151793854 1275.3079390875328 -1131.1165453895508 0 0 0
4363 291 13 -0.5 -2221.480945104929 1350.9567608434886 -1151.164979497987 0 0 0
3630 242 15 0 -30.36858793427936 1411.0534411563262 -1199.1082465827817 0 -1 0
4351 291 1 0 -2081.8394956187576 1446.7412696369838 -1133.450274073976 0 0 0
3766 252 1 0 -1869.7631655718772 -1092.492981233159 -1071.1980485527745 0 0 0
3751 251 1 0 -488.2025504493781 -899.74722397251 -1062.4447627754548 0 0 0
2667 178 12 0 -229.27302386306548 -829.9640161199328 -1059.2082494095073 0 0 0
2665 178 10 1 -168.6504164962284 -826.6367808242836 -1081.3204938880133 0 0 0
2662 178 7 2 -112.71849602021294 -823.1465756859411 -1107.161060331355 0 0 0
5533 369 13 -0.5 -2651.62452465061 -626.157409597389 -1074.5983169239184 0 0 0
916 62 1 0 -812.1413970225987 -636.045237564994 -1112.041531159005 0 0 0
923 62 8 0 -819.9619848421346 -614.1825363643701 -1054.2926888700224 0 0 0
5523 369 3 -1.5 -2621.6559671326304 -596.6194714209298 -1066.3199199589033 0 0 0
1613 108 8 0 -1584.6819373091657 -539.374719672726 -1104.4622935331267 0 0 0
1610 108 5 0 -1509.8593184817869 -563.7937408763064 -1104.1433132562331 0 0 0
253 17 13 -0.5 -1329.2156768270959 -547.1725341361312 -1114.5743556918012 0 0 0
251 17 11 1 -1089.1813017867162 -540.2211484189838 -1122.0617206552092 0 0 0
1607 108 2 0 -1081.8487935448518 -527.78711093643 -1064.1780458279086 0 0 0
1609 108 4 0 -1030.775063890699 -546.1131207855389 -1074.0497657089181 0 0 0
1606 108 1 0 -1605.1013763548538 -463.0972362183353 -1089.8210754039908 0 0 0
1620 108 15 0 -1163.707422079474 -520.719481835682 -1080.202105747255 0 0 0
249 17 9 0 -1034.1990845300486 -513.5240193915009 -1106.0837071424467 0 0 0
255 17 15 0 -1024.4270480344985 -453.14077118405953 -1083.1432340486904 0 0 0
246 17 6 -0.5 -983.9506293169453 -501.36413709918446 -1100.6231825273976 0 0 0
928 62 13 -0.5 -975.0833630192899 -465.611235211788 -1051.4924807362017 0 0 0
254 17 14 -1.5 -945.0773516521405 -502.06307390504185 -1078.6336815356783 0 0 0
5443 363 13 -0.5 -556.2039373945041 -330.0721894754817 -1054.6441475104875 0 0 0
917 62 2 0 -594.446419473513 -263.38737229332804 -1064.5776703758775 0 0 0
919 62 4 0 -566.6359051742866 -209.23920766403657 -1062.8129285907823 0 0 0
3381 226 6 -0.5 -486.4290293472092 -202.9692715283126 -1054.4057634397057 0 0 0
3389 226 14 -1.5 -464.38373384808773 -184.27945272654205 -1087.9087534526884 0 0 0
5064 338 9 0 -701.4885834936949 -77.06824000204223 -1100.886656515357 0 0 0
649 44 4 0 -60.4202350365648 -80.93613174539817 -1105.8032780453198 0 0 0
3132 209 12 0 -1159.8999597449883 -58.99277123441083 -1057.6217897312065 0 0 0
5068 338 13 -0.5 -1005.0825945706118 -52.809086729288076 -1051.1219055760407 0 0 0
5058 338 3 -1.5 -978.6384593351735 -21.589415344681946 -1065.8390151605358 0 0 0
5067 338 12 0 -930.9231498948948 -12.869163205660461 -1054.7782984725127 0 0 0
5065 338 10 1 -870.9607242970528 -16.435369571525023 -1071.0236947885592 0 0 0
5062 338 7 2 -812.7220030795 -35.05271596154874 -1075.761964454498 0 0 0
5066 338 11 1 -760.5440926179652 -48.790659558954914 -1081.1774695529991 0 0 0
5070 338 15 0 -646.4241678107455 -65.47503974117004 -1103.1590531805832 0 0 0
647 44 2 0 -115.02265657892606 -70.95118789482919 -1109.7853493173372 0 0 0
1003 67 13 -0.5 -1164.4764914723348 290.9258542354476 -1052.8913384858463 0 0 0
1717 115 7 2 -262.24590161340484 373.7398855933986 -1114.8895624738723 0 0 0
1298 87 8 0 -1037.207416075697 440.4630058623039 -1104.033149661752 0 0 0
1721 115 11 1 -224.9543274417698 410.92072608955726 -1102.9448632537194 0 0 0
1719 115 9 0 -180.14635317054965 460.7786537992865 -1103.5151748037206 0 0 0
1716 115 6 -0.5 -152.2155707202152 499.44011866452837 -1078.5410612892645 0 0 0
5165 345 5 0 -2011.210396410474 592.41616729355 -1058.3591588603724 0 0 0
5168 345 8 0 -1943.2873965645529 573.4836969800838 -1093.1996407254533 0 0 0
5161 345 1 0 -1896.013446329129 578.4956767324921 -1103.1583978211236 0 0 0
1724 115 14 -1.5 -127.04746268195892 535.6661209009142 -1079.5017659940618 0 0 0
4685 313 5 0 -2997.113409670485 764.3559398216677 -1108.361213552498 0 0 0
1414 95 4 0 -1448.3693181318588 753.6474664175728 -1094.262452695209 0 0 0
4690 313 10 1 -2860.3750646578756 833.5091383341716 -1104.8909943809717 0 0 0
4687 313 7 2 -2821.2337379687015 832.1245513344206 -1057.5298876397997 0 0 0
4073 272 8 0 -2742.7307528869924 838.7376801731892 -1099.2183451770577 0 0 0
4069 272 4 0 -2379.7726089731896 873.732620120047 -1068.6764094310788 0 0 0
4891 327 1 0 -908.077984868937 973.4175402764042 -1071.2947005866438 0 0 0
4898 327 8 0 -871.0532901303632 1010.1855165123585 -1065.80787626323 0 0 0
4895 327 5 0 -818.0733012775352 1075.6921502612756 -1088.928795662375 0 0 0
4084 273 4 0 -764.7396157947361 1074.5253271800889 -1091.1278086160255 0 0 0
5627 376 2 0 -682.8637762584138 1178.23726375581 -1053.7124543705197 0 0 0
5375 359 5 0 -605.7503499193375 1159.8762290583416 -1108.9690939177863 0 0 0
4185 279 15 0 -479.7233831867228 1181.639839381615 -1090.0229394184546 0 0 0
4264 285 4 0 -216.68767688214325 1196.1599363967268 -1100.6625862733304 0 0 0
4899 327 9 0 -559.3004352297629 1242.388467160889 -1121.5471557660092 0 0 0
4905 327 15 0 -548.5125258325867 1254.4721606855533 -1085.496238634552 0 0 0
4896 327 6 -0.5 -507.3502172970874 1247.634194530667 -1115.7104202250366 0 0 0
4184 279 14 -1.5 -444.49590845501257 1256.2226559732633 -1121.959762347781 0 0 0
4275 285 15 0 -314.81952265086693 1249.6005474761844 -1090.7301894865589 0 0 0
4262 285 2 0 -273.0097049604247 1211.8849450272844 -1087.1121406142565 0 0 0
4355 291 5 0 -2138.4521822228035 1338.0229040769486 -1118.6505588830357 0 0 0
2183 146 8 0 -890.406201285751 1314.5113518933665 -1057.0201712397113 0 0 0
4271 285 11 1 -411.60857528096545 1302.4008618576413 -1113.8318429679712 0 0 0
5376 359 6 -0.5 -305.4356045928964 1288.9292977599957 -1112.003636535871 0 0 0
4269 285 9 0 -350.1319497873412 1303.2546584075026 -1086.2821517811194 0 0 0
4266 285 6 -0.5 -301.160304968004 1288.4737798494557 -1064.3328063465995 0 0 0
5384 359 14 -1.5 -265.81419499569836 1307.3659302533038 -1114.6611176295507 0 0 0
4274 285 14 -1.5 -257.89981346234305 1297.6592171680136 -1059.3786838839128 0 0 0