LAMMPS data file via write_data, version 27 Jun 2024, timestep = 2880000, units = real

5730 atoms
15 atom types
5406 bonds
16 bond types
5730 angles
15 angle types

-3000 3000 xlo xhi
-1500 1500 ylo yhi
-1500 1500 zlo zhi

Masses

1 241.19
2 73.54000000000001
3 330.71
4 235.16
5 68.06999999999999
6 353.53
7 223.38
8 41.1
9 216.91
10 155.15
11 147.32
12 264.65
13 300.8
14 326.05
15 85.20999999999999

Pair Coeffs # lj/cut/coul/debye/gpu

1 0.71637 40.7505
2 0.665709 48.1397
3 1.15033 39.2216
4 0.726774 43.8077
5 0.514724 53.3428
6 1.17127 41.7847
7 1.2256 38.5601
8 0.675431 54.5696
9 1.26117 43.78
10 0.939007 42.5209
11 0.960667 41.1825
12 1.30988 48.0761
13 1.36645 37.7114
14 1.35529 39.2179
15 0.592003 47.2602

Bond Coeffs # harmonic

1 0.003 59.228
2 0.008 56.48
3 0.001 69.324
4 3.207 42.88
5 0.11 49.807
6 0.002 74.968
7 0.001 91.635
8 0.145 54.383
9 2.709 44.406
10 1.71 61.679
11 1.625 54.051
12 0.207 66.185
13 0.002 64.76
14 0.079 63.886
15 0.2 40
16 0.2 40

Angle Coeffs # harmonic

1 11.427 158.273
2 50.464 132.042
3 8.207 156.514
4 92.705 149.394
5 100 174.44
6 3.15 145.53
7 48.938 159.031
8 17.401 129.945
9 15.735 56.441
10 60 172.254
11 60.285 168.396
12 11.83 99.091
13 150 107.995
14 27.746 149.925
15 7.483 160.775

Atoms # full

2410 161 10 1 -2314.640743184871 -1407.7764611992814 -1494.4426824343052 0 0 0
2407 161 7 2 -2268.32644236647 -1401.9528913299037 -1453.5952460765002 0 0 0
3778 252 13 -0.5 -2064.6966322627013 -1280.3833089783022 -1431.2935481957988 0 0 0
2401 161 1 0 -2527.2350678985817 -1200.3914268513397 -1499.5761443018014 0 0 0
3620 242 5 0 -372.592071136479 -1217.3680662277382 -1448.4899591722478 0 0 0
3623 242 8 0 -414.8148852582996 -1195.591424107918 -1487.2050289431838 0 0 0
2589 173 9 0 -1628.9768205883165 -550.875312792742 -1459.5643303424686 0 0 1
2586 173 6 -0.5 -1587.9754048466762 -562.6548731487636 -1426.070745858709 0 0 1
2595 173 15 0 -1585.2543265949957 -507.2547243596943 -1426.4839049806874 0 0 1
2928 196 3 -1.5 -2550.1062246203646 -412.622599694134 -1440.7222637161144 0 0 0
2938 196 13 -0.5 -2532.1299927366063 -449.2193975421248 -1454.2751450805877 0 0 0
973 65 13 -0.5 -2757.311834647877 -361.6448872219263 -1440.2991066882905 0 0 0
963 65 3 -1.5 -2741.775117776401 -333.69186353633296 -1467.8366742265512 0 0 0
972 65 12 0 -2698.608853588792 -304.8788976686981 -1464.187375340557 0 0 0
965 65 5 0 -2778.645166642906 -237.15574031914085 -1469.2071551542895 0 0 0
970 65 10 1 -2644.796834609643 -270.73757867973296 -1445.2539798809896 0 0 0
967 65 7 2 -2594.75764440711 -235.4647774005747 -1437.6443903233028 0 0 0
968 65 8 0 -2805.5855202139473 -164.19180401264688 -1491.946907216103 0 0 0
971 65 11 1 -2552.928556078473 -201.4880914185049 -1433.5532640512356 0 0 0
969 65 9 0 -2506.9133030495973 -153.7394793341803 -1433.6612911939658 0 0 0
961 65 1 0 -2845.155231590831 -124.33608448164574 -1479.9637528369042 0 0 0
962 65 2 0 -2511.0061730772627 -18.761953722231524 -1443.2381633734435 0 0 0
964 65 4 0 -2508.819926479829 39.76337615852159 -1455.3250068093428 0 0 0
658 44 13 -0.5 -358.7752843381591 104.87494823569725 -1463.948822946545 0 0 0
1423 95 13 -0.5 -1715.0788247418527 412.7126733740016 -1477.3364504038143 0 0 0
1413 95 3 -1.5 -1702.105964474807 452.39500993574023 -1485.9506162317582 0 0 0
1422 95 12 0 -1679.7449735926025 488.1882709941114 -1460.1348214951643 0 0 0
4932 329 12 0 -1889.5801975454424 550.642667941234 -1468.4490062980667 0 0 0
1418 95 8 0 -1811.8518887391108 582.2786401165 -1481.2237003481573 0 0 0
1411 95 1 0 -1848.9014465610924 550.7643935663976 -1498.3650652419205 0 0 0
1415 95 5 0 -1762.9902676232707 563.8324270377996 -1453.5546660695932 0 0 0
4483 299 13 -0.5 -2181.7785931204676 865.9852146029815 -1430.4516752659424 0 0 0
4473 299 3 -1.5 -2146.6247750251805 890.2995797093384 -1426.3816388921475 0 0 0
1404 94 9 0 -2211.7573128047025 919.0453358330274 -1463.6456196526715 0 0 1
1401 94 6 -0.5 -2169.3766379552494 944.2431633083673 -1438.911734570468 0 0 1
4482 299 12 0 -2116.1414982471897 908.0463263162239 -1463.293750901207 0 0 0
4480 299 10 1 -2050.0642534273693 922.5338296034637 -1467.9864616091259 0 0 0
4477 299 7 2 -1991.6395698773338 941.9546721635462 -1473.8638181997103 0 0 0
4481 299 11 1 -1942.60185977589 964.705582373714 -1471.4401642929674 0 0 0
1410 94 15 0 -2212.876814728673 995.7823288944296 -1451.46979715411 0 0 1
1409 94 14 -1.5 -2151.523628916327 981.9592775472387 -1425.9271217601877 0 0 1
4479 299 9 0 -1889.774036234223 1000.8941996957261 -1463.1274853263897 0 0 0
4476 299 6 -0.5 -1851.800682192616 1040.281317528375 -1470.9412439264963 0 0 0
4484 299 14 -1.5 -1808.7991002484289 1046.5203609127032 -1472.479077972879 0 0 0
1397 94 2 0 -2199.1357348000715 1051.1844106627448 -1467.1578791527324 0 0 1
1399 94 4 0 -2191.0010023661985 1110.7755696679378 -1477.2944197431927 0 0 1
2411 161 11 1 -2231.0217372980114 -1392.6707505787895 -1415.7465570879858 0 0 0
2409 161 9 0 -2198.428344936981 -1360.1561506108494 -1368.8331870789852 0 0 0
3618 242 3 -1.5 -399.17787791079513 -1353.6524952178186 -1365.7326175360047 0 0 0
3628 242 13 -0.5 -437.00409809958876 -1341.7572193146111 -1381.7169066533927 0 0 0
3627 242 12 0 -355.14961526795594 -1331.6606418781435 -1359.3138716299118 0 0 0
3768 252 3 -1.5 -2054.3637316703944 -1269.6173120584463 -1391.14693786907 0 0 0
3777 252 12 0 -2027.117423871465 -1236.3570193130597 -1368.6334218133643 0 0 0
3770 252 5 0 -2080.735386136597 -1160.1833001500804 -1366.2224881775714 0 0 0
2656 178 1 0 -324.9381135883692 -856.5344729885518 -1366.6883350055225 0 0 0
1813 121 13 -0.5 -2446.532795884612 -649.1740182199645 -1362.9620864249666 0 0 0
1803 121 3 -1.5 -2459.0022955201825 -609.2212067556998 -1369.8059144329163 0 0 0
1812 121 12 0 -2430.5575132942613 -571.8254426271567 -1375.11140313891 0 0 0
1810 121 10 1 -2380.852737932432 -542.4739346759138 -1352.4073325285456 0 0 0
2594 173 14 -1.5 -1573.2990551247847 -577.000148940745 -1386.810027954251 0 0 1
1808 121 8 0 -2573.440617211926 -458.21934939717454 -1395.6430920005569 0 0 0
1805 121 5 0 -2493.5855254951302 -504.40271851122844 -1401.2226311657937 0 0 0
2582 173 2 0 -1509.297284106408 -501.35334338609596 -1411.0713594384165 0 0 1
2584 173 4 0 -1464.927502261051 -475.6071680113524 -1394.4003377926372 0 0 1
1801 121 1 0 -2576.7931742155597 -396.5204973051457 -1404.2617181168214 0 0 0
2937 196 12 0 -2528.883225052793 -378.53087465554836 -1416.2921555983355 0 0 0
2930 196 5 0 -2606.8180496509367 -307.93767016188104 -1379.4900347384123 0 0 0
2935 196 10 1 -2470.4709661147103 -355.12052533609324 -1403.501008422352 0 0 0
2932 196 7 2 -2415.2004719983775 -330.9935660160404 -1398.1700370162378 0 0 0
2936 196 11 1 -2365.397323720283 -310.71390437899777 -1402.7796324276962 0 0 0
2933 196 8 0 -2626.224655954405 -235.9646064235758 -1351.965664278664 0 0 0
2934 196 9 0 -2301.837364005718 -290.7793124578903 -1397.1787404158044 0 0 0
2940 196 15 0 -2265.8250035190963 -234.12155725528072 -1401.5647693521728 0 0 0
2931 196 6 -0.5 -2250.381083987838 -278.8947017920487 -1404.1951594929649 0 0 0
2939 196 14 -1.5 -2208.339574876646 -283.24954575310744 -1389.8952485022473 0 0 0
2927 196 2 0 -2215.7373735232973 -165.0008604867605 -1377.4442314804623 0 0 0
975 65 15 0 -2509.6836498848893 -85.62607783481661 -1423.8227661358965 0 0 0
966 65 6 -0.5 -2463.481849843665 -121.14581026580977 -1416.812895340164 0 0 0
974 65 14 -1.5 -2442.191556345103 -98.52598593121122 -1384.8580540411097 0 0 0
2929 196 4 0 -2192.7529332794666 -111.42780996799513 -1371.1728285857537 0 0 0
648 44 3 -1.5 -353.6052684553401 94.47402242131639 -1422.5951278805715 0 0 0
657 44 12 0 -317.8893315941637 99.78202816 -1387.3622356827473 0 0 0
655 44 10 1 -255.78714176853168 85.67101821144756 -1367.4173957439937 0 0 0
650 44 5 0 -328.1070554047832 158.08742342179673 -1381.4500564890502 0 0 0
1051 71 1 0 -645.0852576797671 446.79428507577717 -1353.1085533464534 0 0 0
1420 95 10 1 -1634.4781514309846 503.1565122065526 -1417.926951519867 0 0 0
1417 95 7 2 -1593.1058802431348 521.8665956655728 -1376.4361410802242 0 0 0
4930 329 10 1 -1861.9135635614684 577.3221009574962 -1418.9534837490771 0 0 0
4927 329 7 2 -1837.0835513014858 613.634419744063 -1375.8863335651859 0 0 0
4693 313 13 -0.5 -2832.2835514058884 846.5331017215293 -1353.3744865234912 0 0 0
4485 299 15 0 -1863.012319068984 1021.3443661442415 -1406.9563861816641 0 0 0
4472 299 2 0 -1834.971751529772 1053.7903229619822 -1367.0321804335433 0 0 0
4088 273 8 0 -1164.2075336440118 1164.3635216949097 -1359.0493180004078 0 0 0
4231 283 1 0 -2381.0438289311237 1265.08276878444 -1389.7277857387396 0 0 0
4651 311 1 0 -1280.161027810219 1259.4492652525835 -1374.4653958928482 0 0 0
4081 273 1 0 -1182.3742773794484 1208.2243010626012 -1389.3522498707528 0 0 0
4895 327 5 0 -770.5846608058149 1215.3677053600618 -1362.966451167691 0 0 0
4238 283 8 0 -2340.9923392115816 1293.4434192376496 -1350.3357718037853 0 0 0
4898 327 8 0 -798.3602229280835 1307.2000109210114 -1381.6477542269192 0 0 0
3619 242 4 0 -16.262176337639634 -1444.7445535855556 -1332.4408986757967 0 0 0
3630 242 15 0 -79.14528820717528 -1353.2601922933482 -1322.7886195496403 0 0 0
3617 242 2 0 -50.566366957483645 -1412.611752200534 -1335.9003486147778 0 0 0
2415 161 15 0 -2225.1336530627023 -1330.5062448382312 -1309.040763656678 0 0 0
2406 161 6 -0.5 -2163.3387316559006 -1327.9215951301778 -1343.3190056835006 0 0 0
2414 161 14 -1.5 -2120.8981877258257 -1318.5486424889534 -1334.1657788619075 0 0 0
3625 242 10 1 -299.05089093377643 -1324.9464372065568 -1330.9135176961256 0 0 0
3622 242 7 2 -238.4979615525478 -1321.3405975613923 -1317.0520798270404 0 0 0
3626 242 11 1 -185.82073513301543 -1324.7289612773793 -1304.247256146265 0 0 0
3624 242 9 0 -122.57366086477171 -1316.1352524923293 -1293.8712948445846 0 0 0
3775 252 10 1 -1966.1248701993454 -1219.877004693459 -1347.3895434494007 0 0 0
3772 252 7 2 -1909.4679041727065 -1211.2453745866596 -1325.4291550102441 0 0 0
3776 252 11 1 -1859.6104961174094 -1196.2658979703263 -1311.208308583411 0 0 0
3774 252 9 0 -1803.6747379850144 -1168.890983472 -1289.8582669565403 0 0 0
3780 252 15 0 -1755.8511112350395 -1161.2411655155909 -1323.3954140384042 0 0 0
3779 252 14 -1.5 -1717.0491943281038 -1138.3317634537345 -1284.570942110912 0 0 0
3767 252 2 0 -1681.8026429412823 -1162.9817497510219 -1316.8790491377765 0 0 0
3769 252 4 0 -1631.5813733492432 -1137.8031078251229 -1311.1887012370726 0 0 0
3773 252 8 0 -2103.1217060640674 -1091.8239078151717 -1315.7279897729454 0 0 0
3766 252 1 0 -2114.6038517708084 -1021.3797793772255 -1324.172402223443 0 0 0
2660 178 5 0 -235.74392823513048 -849.5452602995231 -1293.1373369941261 0 0 0
2663 178 8 0 -283.04021642506297 -827.7770258304256 -1342.662960130267 0 0 0
1807 121 7 2 -2338.2853364639527 -516.2438988730412 -1317.1605264362752 0 0 0
1811 121 11 1 -2298.6404483332694 -497.9016401456327 -1286.10722434413 0 0 0
2926 196 1 0 -2646.4721318280513 -191.90694258035373 -1314.9700413205335 0 0 0
652 44 7 2 -197.099754702187 82.08761599398123 -1347.6467016498284 0 0 0
656 44 11 1 -147.43813365347248 82.01764919136856 -1325.0307496889916 0 0 0
654 44 9 0 -93.63483507210563 83.91842659267425 -1282.8029764938724 0 0 0
653 44 8 0 -308.2494443110431 236.18173162265927 -1342.1073382794434 0 0 0
646 44 1 0 -283.15066361699905 238.031358945791 -1287.1027477951325 0 0 0
1058 71 8 0 -654.4240710516801 445.2384984841123 -1293.6353067991772 0 0 0
1421 95 11 1 -1558.157937124312 534.3930236942236 -1336.3479764800243 0 0 0
1419 95 9 0 -1510.9277646965127 543.3800902991837 -1294.0790533718916 0 0 0
1424 95 14 -1.5 -1416.4140293482126 541.642983677698 -1279.1923893099197 0 0 0
1714 115 4 0 -111.67335890888498 534.1134450620328 -1302.3155921179489 0 0 0
4931 329 11 1 -1817.114620409273 648.8797670605227 -1339.1787866167394 0 0 0
4929 329 9 0 -1780.8656464750754 682.8122536371909 -1295.113571007612 0 0 0
4926 329 6 -0.5 -1742.6584857023333 712.7707922988919 -1277.259664292339 0 0 0
4934 329 14 -1.5 -1700.2813510779151 726.4470959741147 -1277.7519268327878 0 0 0
4683 313 3 -1.5 -2809.0667164491506 872.1282281825579 -1327.7529983314812 0 0 0
4692 313 12 0 -2800.6614471453304 863.141827347744 -1279.5053678377328 0 0 0
4474 299 4 0 -1780.367970215751 1065.3996996740618 -1331.2824102668903 0 0 0
4663 311 13 -0.5 -1373.9369420069274 1066.5170392862851 -1287.4700188380234 0 0 0
4085 273 5 0 -1167.425343614656 1117.0395714885287 -1287.647411686616 0 0 0
4903 327 13 -0.5 -828.7204582134557 1086.7964629489477 -1331.6944733683974 0 0 0
4893 327 3 -1.5 -805.1211826229671 1118.7952022632837 -1314.847291297704 0 0 0
4655 311 5 0 -1307.8218444024478 1147.4529992404293 -1291.271227573807 0 0 0
4902 327 12 0 -756.3241637408269 1127.9524384711963 -1315.4614053806902 0 0 0
4900 327 10 1 -699.0688003016013 1133.1603360043969 -1280.5040454177906 0 0 0
4235 283 5 0 -2277.846744597099 1250.9386654396042 -1316.1563180064397 0 0 0
4658 311 8 0 -1279.6175279713593 1201.6037632223433 -1337.5059715279353 0 0 0
5630 376 5 0 -1038.8969540912985 1220.2152639335156 -1319.6028585848142 0 0 0
5633 376 8 0 -1046.392494590309 1293.6896184759555 -1336.3550594529668 0 0 0
4891 327 1 0 -799.1128197650064 1342.6225322173727 -1334.8828930108177 0 0 0
4261 285 1 0 -582.9144343748463 1315.495187605703 -1288.1462034646563 0 0 0
5626 376 1 0 -1069.061182721124 1362.4513268219669 -1344.8392430420943 0 0 0
2402 161 2 0 -2270.3710301485867 -1319.1836880205933 -1245.9787797292067 0 0 0
2404 161 4 0 -2305.5234062468103 -1292.6846058809454 -1203.5815948237168 0 0 0
3621 242 6 -0.5 -75.26777197932168 -1323.2311544716872 -1265.3512202091274 0 0 0
3629 242 14 -1.5 -52.81136206459244 -1340.6692559596565 -1231.3654361600525 0 0 0
3771 252 6 -0.5 -1755.5504955878987 -1157.598120628083 -1274.9588232907188 0 0 0
2668 178 13 -0.5 -269.34314257747474 -951.1822135603347 -1225.2264163878708 0 0 0
2658 178 3 -1.5 -252.8505385539219 -917.3377811263651 -1204.8119936521296 0 0 0
2667 178 12 0 -214.08075085296883 -887.0155732096332 -1212.7058199644748 0 0 0
1617 108 12 0 -1456.291383893085 -620.8923175052155 -1200.565559668624 0 0 0
916 62 1 0 -794.8430021204803 -609.0425676773411 -1267.446650135561 0 0 0
1610 108 5 0 -1499.4746946877492 -536.3558879199686 -1234.6218829527302 0 0 0
923 62 8 0 -841.4054342896089 -587.8700082330827 -1224.933820207015 0 0 0
1809 121 9 0 -2244.462554714921 -489.70767513773626 -1245.9645577455324 0 0 0
1815 121 15 0 -2195.2173009525063 -444.6280580046377 -1231.7493397158294 0 0 0
1802 121 2 0 -2155.2114282201032 -410.25202316315836 -1266.516512302866 0 0 0
1804 121 4 0 -2109.190265037044 -383.28995997295294 -1263.958141473132 0 0 0
1613 108 8 0 -1504.736128443934 -444.4823104327901 -1237.3732092132627 0 0 0
1606 108 1 0 -1506.2353484274206 -377.096673776694 -1213.9025248573266 0 0 0
241 17 1 0 -1241.0532062906123 -418.91927490238595 -1210.841593858944 0 0 0
3128 209 8 0 -1121.5430402987608 58.98445960883103 -1220.4118965064697 0 0 0
659 44 14 -1.5 -18.081984185921513 34.07649201253135 -1249.9894755251673 0 0 0
651 44 6 -0.5 -46.361340580427154 67.2163053306744 -1259.0808905038982 0 0 0
3121 209 1 0 -1088.3074523620119 88.37863301495803 -1262.5182768456928 0 0 0
660 44 15 0 -97.67798279058627 76.72592843746662 -1205.3496249577292 0 0 0
1711 115 1 0 -503.7525784866653 380.6264147891359 -1224.5679678608956 0 0 0
1725 115 15 0 -126.94069974782042 443.63041396401906 -1222.9246357584047 0 0 0
1055 71 5 0 -688.6218667200768 465.88861886141717 -1246.0455364576492 0 0 0
1712 115 2 0 -110.94608752185863 491.10076454939997 -1265.6290002653147 0 0 0
1425 95 15 0 -1492.9852808362882 526.7084868104085 -1225.2275312797933 0 0 0
1416 95 6 -0.5 -1459.665314178458 544.402022703998 -1273.6730832605253 0 0 0
4935 329 15 0 -1802.9471270508611 734.3438270668418 -1258.4704546206162 0 0 0
4688 313 8 0 -2985.4020847090314 815.5606238600852 -1242.1510227644392 0 0 0
4922 329 2 0 -1889.1512175424139 774.4962887441075 -1221.8088209485827 0 0 0
4924 329 4 0 -1923.6632736982494 806.2052091339788 -1202.9184525186647 0 0 0
4685 313 5 0 -2921.795956619108 841.8070125237992 -1269.1864204764458 0 0 0
4690 313 10 1 -2779.5180241927137 871.108519430787 -1222.2129595088682 0 0 0
4653 311 3 -1.5 -1345.0915819175914 1052.912088366876 -1258.793996680517 0 0 0
4662 311 12 0 -1302.8926991691296 1071.543440913225 -1243.769239988975 0 0 0
4660 311 10 1 -1255.06375789245 1074.343836860722 -1204.859001017585 0 0 0
5638 376 13 -0.5 -1054.8183499850604 1085.9484321271507 -1200.4907408720894 0 0 0
5628 376 3 -1.5 -1035.6339982844163 1123.9953896911582 -1202.4113570241188 0 0 0
5632 376 7 2 -865.6895283684695 1119.2637186299432 -1220.6412845735454 0 0 0
4094 273 14 -1.5 -823.2767628169656 1114.424425319421 -1218.9074225331053 0 0 0
5636 376 11 1 -812.5370155764181 1113.3185159180982 -1212.04686418648 0 0 0
5634 376 9 0 -746.7046127896452 1116.6760634013215 -1204.356160814461 0 0 0
5631 376 6 -0.5 -695.0003189838343 1124.1000385082652 -1221.0680665754005 0 0 0
5639 376 14 -1.5 -660.5116392308248 1110.7021788821417 -1246.048126239615 0 0 0
4233 283 3 -1.5 -2267.957642130939 1181.8807939497894 -1209.8927449011348 0 0 0
4243 283 13 -0.5 -2264.4506053080327 1145.4760582765725 -1231.7915325960591 0 0 0
5637 376 12 0 -993.511296245801 1136.7573173709109 -1221.7179231830473 0 0 0
5635 376 10 1 -925.2555771511493 1134.456896760814 -1224.2630985886337 0 0 0
4086 273 6 -0.5 -861.0520626760701 1129.1033578748804 -1200.6420493187777 0 0 0
4175 279 5 0 -778.4624620742844 1165.4455575592058 -1225.8603707884527 0 0 0
5640 376 15 0 -690.6541378705016 1183.7996708806343 -1217.4626996180411 0 0 0
5383 359 13 -0.5 -650.1231692397662 1159.7391524010136 -1229.5414013733625 0 0 0
4897 327 7 2 -639.5812461715443 1139.6623161855762 -1264.4121413772057 0 0 0
5373 359 3 -1.5 -609.684417611152 1169.4500681488112 -1242.2476242756713 0 0 0
4901 327 11 1 -585.4534878906771 1138.6480783188338 -1257.1746717065137 0 0 0
5382 359 12 0 -566.552335940726 1176.2740795733162 -1219.3340843832395 0 0 0
4899 327 9 0 -521.0443068403596 1153.0772552443957 -1261.7474110567832 0 0 0
4896 327 6 -0.5 -475.118267963269 1182.9043674844045 -1253.988567785312 0 0 0
5380 359 10 1 -500.7304279574697 1172.0340398270287 -1218.1339871406196 0 0 0
4905 327 15 0 -474.2232937764813 1135.5840729673082 -1229.1645684337673 0 0 0
5377 359 7 2 -440.12624772656903 1184.3821420373633 -1222.1841384454726 0 0 0
5381 359 11 1 -388.71513344211854 1198.3790884883122 -1220.840396827693 0 0 0
4353 291 3 -1.5 -2328.9846742143236 1249.424004673417 -1214.2071234125938 0 0 0
4242 283 12 0 -2240.957678183561 1223.2466752121866 -1211.7012704522888 0 0 0
4240 283 10 1 -2182.518462714617 1243.6524461392917 -1205.011127649548 0 0 0
4178 279 8 0 -741.8995464827981 1209.3228090671737 -1262.6754327583335 0 0 0
4171 279 1 0 -718.3437758157364 1273.9936872758221 -1250.87783302217 0 0 0
5627 376 2 0 -649.929885900921 1246.6470935417647 -1225.7790190499402 0 0 0
4265 285 5 0 -529.5393616719515 1238.3747364427404 -1222.228026606206 0 0 0
4904 327 14 -1.5 -455.11755000738253 1218.8405707014936 -1238.2343615290797 0 0 0
5379 359 9 0 -326.24482514121274 1218.261978557337 -1211.9469988464214 0 0 0
5376 359 6 -0.5 -282.13862480359694 1251.0813522619846 -1211.803807209019 0 0 0
5384 359 14 -1.5 -244.08629900562255 1260.205010491049 -1231.8671338371628 0 0 0
4363 291 13 -0.5 -2343.8065206745564 1276.764122995511 -1243.38671035092 0 0 0
5629 376 4 0 -607.6113675078559 1276.8792089040742 -1207.409837980463 0 0 0
4268 285 8 0 -560.9414298629185 1284.895256523028 -1250.219139513638 0 0 0
4232 283 2 0 -1918.0970526030185 1403.8484860749345 -1208.3617936765309 0 0 0
4234 283 4 0 -1888.6543485421619 1446.3330840309497 -1240.431281698147 0 0 0
2665 178 10 1 -162.90576314640336 -849.1383811415471 -1181.5986058829503 0 0 0
2662 178 7 2 -121.22482548922474 -805.4565552194753 -1168.164993634394 0 0 0
2666 178 11 1 -87.59101874788567 -767.5437194958923 -1146.8066643014158 0 0 0
5523 369 3 -1.5 -2650.307281146162 -690.1623724767308 -1158.0268532396358 0 0 0
1618 108 13 -0.5 -1512.7562666641659 -680.5152018277594 -1180.852185189528 0 0 0
5533 369 13 -0.5 -2686.340516321069 -669.9923781113081 -1169.18713314769 0 0 0
1608 108 3 -1.5 -1498.340118814857 -643.5232851041986 -1197.381423525536 0 0 0
1615 108 10 1 -1404.908910836709 -606.1318302168196 -1171.5822447227397 0 0 0
1612 108 7 2 -1364.4349536093525 -586.867696059157 -1129.4849063721215 0 0 0
920 62 5 0 -876.633376326991 -587.4709242546128 -1162.2540333352815 0 0 0
1806 121 6 -0.5 -2224.8135051777704 -483.02593853638 -1196.2160156876646 0 0 0
1814 121 14 -1.5 -2189.5348506781015 -468.75292261854287 -1174.1681736261346 0 0 0
248 17 8 0 -1224.1589459742913 -456.4896789856686 -1188.6418362885117 0 0 0
245 17 5 0 -1217.8734964292669 -474.9456883142571 -1125.6338080681803 0 0 0
5443 363 13 -0.5 -442.4973512814599 -106.7898880962929 -1132.920604889638 0 0 0
3125 209 5 0 -1133.2955879965439 25.52714450698494 -1151.072733838644 0 0 0
1003 67 13 -0.5 -1071.5757779774915 63.77610465676958 -1198.4437132220542 0 0 0
993 67 3 -1.5 -1098.9265053064364 66.71062295055447 -1164.816303324234 0 0 0
1002 67 12 0 -1098.5514280937336 100.35003138427832 -1126.1152458163197 0 0 0
647 44 2 0 -113.59009090747266 93.91847151137927 -1139.2007065795285 0 0 0
1713 115 3 -1.5 -367.52784700759753 212.734081326646 -1197.8074568342568 0 0 0
1723 115 13 -0.5 -361.41889150377847 170.44375240043658 -1195.5465082210067 0 0 0
1291 87 1 0 -1111.2607864139432 249.02769854221256 -1194.5707307381513 0 0 0
1722 115 12 0 -344.6983046785309 247.9001078662698 -1171.9464696632533 0 0 0
1720 115 10 1 -288.9543355818309 277.57379269009857 -1160.6720593550883 0 0 0
1295 87 5 0 -1169.131185399932 364.65730501430636 -1137.4432349298902 0 0 0
1298 87 8 0 -1122.1995423329265 320.44576638048653 -1178.94404032303 0 0 0
1718 115 8 0 -500.0453497123368 357.50089271230183 -1194.9058442509845 0 0 0
1715 115 5 0 -430.50417402341765 324.1826936501603 -1168.2512208427393 0 0 0
1717 115 7 2 -239.72486483553936 314.53740201813554 -1166.6722119273966 0 0 0
1721 115 11 1 -195.66034561562108 340.30923172337975 -1181.1842314699147 0 0 0
1064 71 14 -1.5 -381.59970834208065 445.6749626756472 -1170.8627628412046 0 0 0
1716 115 6 -0.5 -91.38388457592269 385.59711851659546 -1198.0091065127199 0 0 0
1719 115 9 0 -142.26235918749998 379.59902710553433 -1188.2368824846524 0 0 0
1724 115 14 -1.5 -53.4338856507552 405.93851342458413 -1187.0858635945383 0 0 0
1063 71 13 -0.5 -777.4947892217754 486.15561852293797 -1191.4480465115128 0 0 0
1053 71 3 -1.5 -744.723722060537 482.15658355658303 -1164.8877369952486 0 0 0
1062 71 12 0 -695.8409241752777 481.00356972310584 -1169.0053806702704 0 0 0
1060 71 10 1 -638.0067435083456 479.8705183601113 -1144.4789082361144 0 0 0
1057 71 7 2 -578.0966695185743 473.91534820984964 -1130.8742154662684 0 0 0
1061 71 11 1 -525.4767297862819 467.2935614636695 -1125.1104083997798 0 0 0
1056 71 6 -0.5 -409.59091171901593 465.2005340227195 -1143.4336644632083 0 0 0
1065 71 15 0 -413.80758164383303 512.6836363342834 -1163.9500253732765 0 0 0
1412 95 2 0 -1493.3088997652494 525.9460120860442 -1144.6932548469072 0 0 0
1052 71 2 0 -340.93567321490985 582.6367654309063 -1181.1434352646804 0 0 0
1054 71 4 0 -305.18847365296233 633.8188043437353 -1165.9016968653673 0 0 0
5161 345 1 0 -2353.7175137292957 799.0994236803526 -1155.939390859034 0 0 0
5168 345 8 0 -2305.340095503611 753.4999799926821 -1145.6246489252735 0 0 0
4687 313 7 2 -2749.829127639844 867.9939455431684 -1169.2872247194405 0 0 0
4093 273 13 -0.5 -1233.0192020235834 1101.7946324153802 -1190.933130800394 0 0 0
4657 311 7 2 -1202.591568868938 1081.1956208754373 -1173.2391569031606 0 0 0
4092 273 12 0 -1150.1275482621302 1102.1644012461397 -1193.2187665907772 0 0 0
4083 273 3 -1.5 -1193.9925305290228 1093.3688838018463 -1175.4328871891933 0 0 0
4661 311 11 1 -1153.0899326272138 1086.691671340202 -1151.365080336706 0 0 0
4090 273 10 1 -1089.884062382989 1115.3194114275775 -1185.1411687066588 0 0 0
4659 311 9 0 -1091.1738216191764 1097.0073250491018 -1140.8754558701457 0 0 0
4656 311 6 -0.5 -1036.3557960046392 1097.9310392935024 -1145.8220720546797 0 0 0
4664 311 14 -1.5 -1000.8862345570825 1085.9189982231298 -1169.4895055226498 0 0 0
4087 273 7 2 -1028.1322674832925 1111.7598695948284 -1181.3364706980979 0 0 0
4091 273 11 1 -973.728104860683 1111.3377205990105 -1177.046888931177 0 0 0
4089 273 9 0 -911.4606027557784 1123.063660292601 -1174.6462408754494 0 0 0
4183 279 13 -0.5 -870.399140912032 1096.064292432085 -1187.197978382736 0 0 0
4173 279 3 -1.5 -833.8828871355877 1105.3164845401457 -1168.0119824234282 0 0 0
4182 279 12 0 -783.1286704005865 1105.33994132815 -1174.9623788235372 0 0 0
4180 279 10 1 -720.8038977480155 1090.9727507392874 -1154.9489459671386 0 0 0
4177 279 7 2 -664.4697156610926 1076.56964397002 -1132.6486366464999 0 0 0
4665 311 15 0 -1061.834009050767 1143.9223746341409 -1168.0183594422772 0 0 0
4652 311 2 0 -1009.6659272572339 1159.197810544611 -1178.9313861225955 0 0 0
4654 311 4 0 -961.2207901365402 1175.3133325221731 -1190.7574158668078 0 0 0
4095 273 15 0 -879.3763264318691 1167.1800809889955 -1162.6533239363207 0 0 0
4082 273 2 0 -809.26739670282 1193.8509529074688 -1145.0090623535284 0 0 0
4273 285 13 -0.5 -605.96198130931 1187.1000229333997 -1160.5360972953022 0 0 0
4263 285 3 -1.5 -566.693745135393 1172.188068860571 -1166.5403744405091 0 0 0
4272 285 12 0 -519.6601907028262 1193.5382489498115 -1174.045491657347 0 0 0
4892 327 2 0 -397.0185613374725 1159.3157432835394 -1185.6592117422474 0 0 0
4894 327 4 0 -352.3833802595999 1185.6949300814276 -1176.8838065392563 0 0 0
4362 291 12 0 -2285.9405012487114 1243.832455477102 -1192.8918079283053 0 0 0
4360 291 10 1 -2225.0479361064076 1258.8477634003057 -1179.8009663028492 0 0 0
4237 283 7 2 -2130.9790361290175 1269.7456988358338 -1185.250761731964 0 0 0
4357 291 7 2 -2165.3482309463284 1262.3541102976906 -1160.2962514422766 0 0 0
4361 291 11 1 -2113.0302493736126 1269.967315016932 -1146.844178794895 0 0 0
4365 291 15 0 -1988.3992120040027 1253.6239473323812 -1147.5577128980729 0 0 0
4352 291 2 0 -1902.4850000343317 1241.914823981392 -1148.2762925421457 0 0 0
4354 291 4 0 -1854.184234244572 1243.1123145275756 -1162.852450769836 0 0 0
5375 359 5 0 -592.2987760560434 1252.3658496240332 -1168.1890893393522 0 0 0
4270 285 10 1 -463.9870118690508 1204.8139338387682 -1146.9388490381602 0 0 0
5385 359 15 0 -280.3663332644861 1208.2612111494052 -1166.7977196190964 0 0 0
4241 283 11 1 -2082.508885520817 1291.161706293453 -1175.0156868657646 0 0 0
4359 291 9 0 -2049.0612264297883 1290.6458392257014 -1135.7477059178227 0 0 0
4239 283 9 0 -2017.0036998997894 1303.376666053614 -1166.1110965056112 0 0 0
4236 283 6 -0.5 -1973.493572365795 1331.1095470454238 -1145.3655915402296 0 0 0
4245 283 15 0 -1978.826940492993 1348.4394009471143 -1187.0206655581296 0 0 0
5371 359 1 0 -681.6361670849793 1325.4043116265486 -1160.8680409003102 0 0 0
5532 369 12 0 -2620.14615586954 -677.9466581425175 -1120.2973329535644 0 0 0
2664 178 9 0 -39.62829225997917 -733.5676834542271 -1112.575442048123 0 0 0
2670 178 15 0 -44.1891021329462 -676.5770183058772 -1084.3033514407066 0 0 0
5525 369 5 0 -2671.3425047920073 -660.2321360360285 -1081.9622375997774 0 0 0
5530 369 10 1 -2568.31284397278 -652.3991224301774 -1096.613309424918 0 0 0
5527 369 7 2 -2523.8016484077552 -612.9366073557197 -1080.3323511612548 0 0 0
919 62 4 0 -547.9128509882424 -646.7596309917864 -1085.9406458625658 0 0 0
917 62 2 0 -577.9442803003355 -609.3739825381699 -1081.1972892181616 0 0 0
5531 369 11 1 -2480.2341007548293 -584.4151482129262 -1066.8440262618703 0 0 0
5529 369 9 0 -2418.701444216732 -560.6581039961288 -1054.3482657171216 0 0 0
1616 108 11 1 -1332.2541222770683 -570.1683978529621 -1089.520861774889 0 0 0
253 17 13 -0.5 -1272.5420018669577 -548.5929183351271 -1065.8112607020194 0 0 0
250 17 10 1 -1132.292696512151 -527.8476394643354 -1063.1841196087657 0 0 0
247 17 7 2 -1071.8796825048119 -537.1262335653364 -1052.0289375276366 0 0 0
918 62 3 -1.5 -934.89657640437 -539.647555436224 -1090.042880044436 0 0 0
928 62 13 -0.5 -972.1589381834401 -551.1489774139004 -1072.7277243687731 0 0 0
927 62 12 0 -888.0562295514164 -553.7069946437712 -1077.625935810728 0 0 0
930 62 15 0 -603.7142575916099 -560.7209451960143 -1054.0395567015498 0 0 0
2657 178 2 0 -40.49468170283034 -573.7633718598657 -1083.4164596190506 0 0 0
2659 178 4 0 -39.74003970042354 -525.2413500609149 -1066.8320511163035 0 0 0
252 17 12 0 -1193.9464132363125 -517.8795038048607 -1058.9946526152696 0 0 0
1609 108 4 0 -1160.2560854433655 -447.03712083426495 -1050.368144996647 0 0 0
3378 226 3 -1.5 -787.1013752717047 -337.37546839037384 -1054.9656004746473 0 0 0
3382 226 7 2 -628.5992615364098 -291.162813607904 -1057.6803040880704 0 0 0
3386 226 11 1 -577.1280254181771 -275.3342744292004 -1065.4335855794063 0 0 0
3384 226 9 0 -515.6585187361951 -256.0832693172227 -1080.8973785359485 0 0 0
3381 226 6 -0.5 -470.1295016365083 -229.84336413664414 -1087.1592229995845 0 0 0
3380 226 5 0 -802.1344125005891 -212.68484390043608 -1080.8262183376046 0 0 0
3389 226 14 -1.5 -428.0902414854794 -223.42212785093625 -1076.2262889282188 0 0 0
3383 226 8 0 -833.3374340266785 -138.3972158260614 -1052.4705245736143 0 0 0
5433 363 3 -1.5 -411.6888655544829 -115.44329409674265 -1104.2931278611816 0 0 0
5442 363 12 0 -386.46426744960075 -89.28203273278646 -1068.1151971208076 0 0 0
3123 209 3 -1.5 -1162.989588935246 -17.502687367850427 -1073.4000535711377 0 0 0
3132 209 12 0 -1118.1102470093174 -28.69233245070593 -1079.638759734498 0 0 0
3130 209 10 1 -1050.7534730388493 -31.46993461969304 -1073.3038059665885 0 0 0
3127 209 7 2 -991.6541250606172 -43.27695310035706 -1058.5461082450486 0 0 0
3133 209 13 -0.5 -1186.5863608691855 15.058617392560068 -1057.947242324534 0 0 0
3122 209 2 0 -791.2727069813379 60.255810719231405 -1095.4601020765006 0 0 0
5431 363 1 0 -577.8674865192147 9.105413970487671 -1082.1961611875383 0 0 0
5057 338 2 0 -541.2769992014213 40.19540574399437 -1062.4003178371772 0 0 0