LAMMPS data file via write_data, version 27 Jun 2024, timestep = 29120000, units = real

5730 atoms
15 atom types
5667 bonds
16 bond types
5730 angles
15 angle types

-3000 3000 xlo xhi
-1500 1500 ylo yhi
-1500 1500 zlo zhi

Masses

1 241.19
2 73.54000000000001
3 330.71
4 235.16
5 68.06999999999999
6 353.53
7 223.38
8 41.1
9 216.91
10 155.15
11 147.32
12 264.65
13 300.8
14 326.05
15 85.20999999999999

Pair Coeffs # lj/cut/coul/debye/gpu

1 0.71637 40.7505
2 0.665709 48.1397
3 1.15033 39.2216
4 0.726774 43.8077
5 0.514724 53.3428
6 1.17127 41.7847
7 1.2256 38.5601
8 0.675431 54.5696
9 1.26117 43.78
10 0.939007 42.5209
11 0.960667 41.1825
12 1.30988 48.0761
13 1.36645 37.7114
14 1.35529 39.2179
15 0.592003 47.2602

Bond Coeffs # harmonic

1 0.003 59.228
2 0.008 56.48
3 0.001 69.324
4 3.207 42.88
5 0.11 49.807
6 0.002 74.968
7 0.001 91.635
8 0.145 54.383
9 2.709 44.406
10 1.71 61.679
11 1.625 54.051
12 0.207 66.185
13 0.002 64.76
14 0.079 63.886
15 0.2 40
16 0.2 40

Angle Coeffs # harmonic

1 11.427 158.273
2 50.464 132.042
3 8.207 156.514
4 92.705 149.394
5 100 174.44
6 3.15 145.53
7 48.938 159.031
8 17.401 129.945
9 15.735 56.441
10 60 172.254
11 60.285 168.396
12 11.83 99.091
13 150 107.995
14 27.746 149.925
15 7.483 160.775

Atoms # full

3773 252 8 0 -2047.3646419783543 -1309.7742069178346 -1438.0010767598171 0 0 0
3769 252 4 0 -1510.5811481143724 -1303.7335729385777 -1428.6867531995615 0 0 0
3772 252 7 2 -1765.5480496050411 -1254.2903384923907 -1445.1291942701791 0 0 0
3776 252 11 1 -1717.0955510537958 -1247.9221940639509 -1470.441804715697 0 0 0
3780 252 15 0 -1602.3065242944256 -1244.4062066570636 -1471.6201752490865 0 0 0
3767 252 2 0 -1552.6337300264606 -1267.274490343229 -1451.6559213094565 0 0 0
2551 171 1 0 -1458.7870424010023 -1256.6058454491454 -1437.2973772303483 0 0 1
2555 171 5 0 -1331.4378668973018 -1193.398519330326 -1431.9265765312894 0 0 1
2562 171 12 0 -1255.4361768905633 -1143.0295150060742 -1437.0327319140163 0 0 1
2553 171 3 -1.5 -1282.300133833179 -1100.6323566141812 -1443.8881072283352 0 0 1
1082 73 2 0 -2539.415178713381 -1035.1415980276226 -1434.7318551681985 0 0 1
1814 121 14 -1.5 -2808.2962680375304 -601.4250237212638 -1481.2139687426109 0 0 0
1802 121 2 0 -2733.7353689382894 -636.6603583385074 -1471.042349972233 0 0 0
1815 121 15 0 -2741.0397415699435 -600.7110948117988 -1441.9346040050557 0 0 0
5702 381 2 0 -393.81368137072246 -641.3472871116588 -1436.0745412948654 0 0 1
1806 121 6 -0.5 -2788.8746484879316 -587.4397185674375 -1443.5935866585144 0 0 0
965 65 5 0 -2740.90677967085 -328.5653469329835 -1459.1578349842944 0 0 0
2594 173 14 -1.5 -1658.0128787048845 -307.166676054876 -1434.135941645925 0 0 1
968 65 8 0 -2771.659079662847 -295.2397314203536 -1495.157917266913 0 0 0
2595 173 15 0 -1665.9914491042316 -286.64126902531234 -1486.7941268769403 0 0 1
2586 173 6 -0.5 -1626.3992570081339 -298.28654315149373 -1464.237338097021 0 0 1
2926 196 1 0 -2731.491973448351 -217.9884828178494 -1456.0922832308615 0 0 0
1418 95 8 0 -1468.8756616014387 440.61801545322527 -1446.7324314901357 0 0 0
1411 95 1 0 -1400.06291714805 429.4355322921593 -1433.0476521665248 0 0 0
4929 329 9 0 -1874.106169018739 497.1461797153157 -1441.989692969557 0 0 0
4931 329 11 1 -1848.2445758290446 474.7333038724396 -1498.3244992979605 0 0 0
4480 299 10 1 -2099.560763427979 1060.6924354463717 -1464.9905862103835 0 0 0
2413 161 13 -0.5 -2287.4431670531812 1370.4861106007804 -1487.6150651187418 0 -1 0
2403 161 3 -1.5 -2266.9381335402 1364.589209982241 -1449.5745776920076 0 -1 0
3766 252 1 0 -2083.0475452775363 -1365.306959318224 -1423.3245230993866 0 0 0
2552 171 2 0 -978.6806492701569 -1360.6734045984829 -1362.0369173922916 0 0 1
2554 171 4 0 -954.499454309042 -1405.752228066513 -1376.7994398125354 0 0 1
3777 252 12 0 -1864.030846026846 -1277.1349083095622 -1377.0854907649925 0 0 0
3770 252 5 0 -1950.1983296511785 -1264.8385313414258 -1418.7431653589363 0 0 0
3775 252 10 1 -1816.880945886651 -1257.276583738141 -1413.0806381399966 0 0 0
2558 171 8 0 -1401.5265551246532 -1236.3829212473308 -1407.1935055239758 0 0 1
2557 171 7 2 -1154.230007682513 -1209.4998649145043 -1393.9950881300563 0 0 1
2561 171 11 1 -1109.630398249756 -1227.2686858746465 -1368.463113868068 0 0 1
2564 171 14 -1.5 -959.8800637939846 -1271.0087236418362 -1368.4827136614176 0 0 1
2560 171 10 1 -1205.2945944214564 -1184.1544457332259 -1417.2383450430016 0 0 1
2563 171 13 -0.5 -1298.6520154534496 -1074.2983484600873 -1413.8160976417637 0 0 1
1084 73 4 0 -2565.194612827746 -1038.3504060236337 -1401.464754664371 0 0 1
5704 381 4 0 -364.94353614628517 -634.2138457364713 -1391.0977183055873 0 0 1
1809 121 9 0 -2752.1805985420638 -551.1093876466712 -1421.9628147972467 0 0 0
5528 369 8 0 -2553.2857067789505 -538.0281277799379 -1401.305617510965 0 0 0
5521 369 1 0 -2502.598988458842 -556.1383677676992 -1420.2473589221852 0 0 0
1811 121 11 1 -2725.2282811104787 -505.3398368186454 -1386.4425308029474 0 0 0
1807 121 7 2 -2714.7202337981394 -458.0226023312147 -1362.3004462549595 0 0 0
5525 369 5 0 -2574.7455749743567 -463.1355364352496 -1364.971279425251 0 0 0
5533 369 13 -0.5 -2694.390686236796 -424.947558740137 -1368.001165465597 0 0 0
972 65 12 0 -2694.701705198246 -366.0948215111995 -1353.696619038517 0 0 0
2584 173 4 0 -1763.9593628432478 -353.1056578867957 -1389.195695074453 0 0 1
2582 173 2 0 -1721.5385062328965 -332.649822832052 -1419.5247798039522 0 0 1
1801 121 1 0 -2758.9568382774683 -261.2369787400468 -1370.2279800124309 0 0 0
2933 196 8 0 -2712.730063086168 -251.27518068736114 -1408.5360240218802 0 0 0
2930 196 5 0 -2615.112325796554 -233.47705555873688 -1355.0983231730906 0 0 0
1053 71 3 -1.5 -771.3213770179701 133.69039206907397 -1416.7876973484736 0 0 0
1063 71 13 -0.5 -797.7139917953842 111.27260000169775 -1390.8678880855348 0 0 0
1062 71 12 0 -754.9220082238712 181.86184878152636 -1417.1733494657442 0 0 0
1060 71 10 1 -708.3456460432644 223.4449453794475 -1403.484137465071 0 0 0
1723 115 13 -0.5 -672.1978701473121 288.24351942696825 -1357.381434896157 0 0 0
1057 71 7 2 -668.1792020141065 270.1929744724023 -1394.1078727403467 0 0 0
1713 115 3 -1.5 -630.3577389638302 282.9438505989653 -1351.9563297420725 0 0 0
1061 71 11 1 -630.0789753124637 308.5704068697348 -1386.8058407986898 0 0 0
1059 71 9 0 -573.9591766326259 338.85515270209766 -1375.5908969588986 0 0 0
1056 71 6 -0.5 -524.7303491842524 363.0520173014943 -1374.998388049517 0 0 0
1065 71 15 0 -562.1774836888092 407.52161446603276 -1361.8157652069297 0 0 0
1064 71 14 -1.5 -499.7373016807414 399.81711868135403 -1371.6462341250449 0 0 0
4926 329 6 -0.5 -1895.6903475768731 493.2355738003186 -1392.511688489096 0 0 0
4934 329 14 -1.5 -1924.1087284504251 510.3960147246933 -1363.321203766023 0 0 0
4922 329 2 0 -1837.889666704513 497.77171906729086 -1359.6626414675693 0 0 0
4935 329 15 0 -1849.6519439706644 508.78567193702077 -1397.920580287049 0 0 0
1415 95 5 0 -1528.1852085444286 483.08518781575754 -1412.518743820752 0 0 0
1414 95 4 0 -1791.4285818810472 810.8137069623596 -1365.8578921288479 0 0 0
4244 283 14 -1.5 -2094.4635143964606 1045.170433341746 -1398.3096046487185 0 0 0
4232 283 2 0 -1976.549642882067 1013.9339392661346 -1380.2684246020242 0 0 0
4234 283 4 0 -1946.9471656715693 979.487047016958 -1390.197236406791 0 0 0
4364 291 14 -1.5 -2028.617622263121 1057.1943171328694 -1423.7977838584961 0 0 0
4477 299 7 2 -2064.977877784154 1063.5767259136817 -1413.0856672300658 0 0 0
4236 283 6 -0.5 -2079.871620016516 1075.3307364223383 -1369.1563785772794 0 0 0
4481 299 11 1 -2030.973116205843 1072.6108925488754 -1371.8893950890695 0 0 0
4356 291 6 -0.5 -2028.4861228850677 1074.4360122439314 -1382.9074836847587 0 0 0
4365 291 15 0 -2055.453433073844 1128.075758204409 -1416.2430133092998 0 0 0
2401 161 1 0 -2323.4906353388433 1207.6968618371181 -1366.9914520120235 0 -1 0
4264 285 4 0 -319.8684086589369 1208.0055088571744 -1383.0444426324193 0 0 0
2405 161 5 0 -2296.9842587150747 1317.694158416688 -1360.8925471801836 0 -1 0
2412 161 12 0 -2262.4151254272438 1387.8956406260104 -1404.9104975991409 0 -1 0
2410 161 10 1 -2269.357208102741 1443.6907701320465 -1365.7214457071364 0 -1 0
2411 161 11 1 -2299.187671171234 -1460.0690688939326 -1309.9412408818862 0 0 0
2409 161 9 0 -2298.1149482523106 -1400.6486751914101 -1283.3613548840904 0 0 0
2565 171 15 0 -1017.5579829405158 -1302.5240503825019 -1341.216987987836 0 0 1
3778 252 13 -0.5 -1882.7115681604719 -1249.87810703419 -1297.4799679840712 0 0 0
3768 252 3 -1.5 -1886.0306234498591 -1274.3097253217775 -1332.8378360600018 0 0 0
2556 171 6 -0.5 -995.3539366992136 -1252.4378490473412 -1348.7190059449713 0 0 1
2559 171 9 0 -1047.7003355978704 -1238.345505932145 -1348.907044688885 0 0 1
923 62 8 0 -811.0567401695039 -487.56087997135853 -1285.1490238865595 0 0 0
916 62 1 0 -775.6016316859195 -481.8708476494577 -1324.9677339431673 0 0 0
973 65 13 -0.5 -2734.2637445627543 -433.3393401972871 -1337.744902746301 0 0 0
963 65 3 -1.5 -2730.8817925011626 -390.57205151382726 -1338.6339013329512 0 0 0
1810 121 10 1 -2688.711244816203 -410.3417241194821 -1333.6561021764628 0 0 0
5532 369 12 0 -2651.0003494694424 -412.3012081069821 -1297.9199465300835 0 0 0
5523 369 3 -1.5 -2688.0365115311506 -407.9631737405834 -1329.7009286057719 0 0 0
970 65 10 1 -2641.71974498751 -333.0580818509122 -1340.1960039125322 0 0 0
1812 121 12 0 -2656.0764589568644 -363.7825359626757 -1300.6004676780035 0 0 0
967 65 7 2 -2586.2532597655636 -310.4309831634958 -1325.3144291513463 0 0 0
1813 121 13 -0.5 -2592.388808067957 -311.15401475466047 -1285.7815951845023 0 0 0
2938 196 13 -0.5 -2583.9027193344405 -328.96544664132887 -1289.7898422587348 0 0 0
1803 121 3 -1.5 -2615.757840555409 -346.08350906853235 -1276.9183046952544 0 0 0
1808 121 8 0 -2727.409863753383 -239.6550482209264 -1342.21947683556 0 0 0
1805 121 5 0 -2682.479187700841 -299.49464754128235 -1328.4553684672862 0 0 0
2937 196 12 0 -2549.8759262597578 -251.56627620522175 -1276.435269731386 0 0 0
971 65 11 1 -2539.3199758017304 -288.1755901696786 -1308.8676736541058 0 0 0
969 65 9 0 -2487.114718434001 -258.14155890602586 -1278.2154347607948 0 0 0
2935 196 10 1 -2505.3120411754594 -205.92564097137344 -1277.715430504976 0 0 0
2932 196 7 2 -2458.904823256363 -166.91350534618732 -1285.2647317486378 0 0 0
2936 196 11 1 -2421.395872915083 -128.77465602975698 -1287.0855088938913 0 0 0
2939 196 14 -1.5 -2305.433746956229 -16.08340222720811 -1278.4163337639504 0 0 0
1722 115 12 0 -591.079104377056 311.01871265712737 -1339.857700984078 0 0 0
1720 115 10 1 -543.6020196415917 356.9886755796906 -1342.700288544254 0 0 0
1413 95 3 -1.5 -1577.4474736489367 449.78009434358825 -1301.8975940173452 0 0 0
1717 115 7 2 -506.16608443507414 404.71263791094503 -1334.9472548220203 0 0 0
1721 115 11 1 -475.66279481012214 447.0579864077568 -1319.8034983437099 0 0 0
4924 329 4 0 -1814.2381244038747 473.2138801108001 -1301.5047920306079 0 0 0
1422 95 12 0 -1593.1724156838536 490.6361554939133 -1330.529239472333 0 0 0
1052 71 2 0 -576.265074087102 467.75233449783343 -1341.5388916241106 0 0 0
1054 71 4 0 -589.0685272757196 522.8309892600049 -1340.5842463892293 0 0 0
1719 115 9 0 -451.56357129511804 509.6760061895187 -1320.8799918179407 0 0 0
1417 95 7 2 -1669.6312468168874 590.3915587270122 -1323.186946553611 0 0 0
1420 95 10 1 -1628.2524189469266 544.4638591632151 -1331.3877883271914 0 0 0
1725 115 15 0 -417.5010705929318 532.2957827372833 -1287.2429410560933 0 0 0
1716 115 6 -0.5 -425.4453128776512 551.9501881733291 -1340.4452428779146 0 0 0
1724 115 14 -1.5 -403.0427908108658 589.544099571955 -1333.3798956807402 0 0 0
1419 95 9 0 -1761.4488773318524 663.3041281130862 -1292.6793049322034 0 0 0
1421 95 11 1 -1708.1703707036106 627.6405951026289 -1316.9322085388844 0 0 0
1425 95 15 0 -1773.2542068823902 717.9137465182704 -1298.517104570899 0 0 0
1412 95 2 0 -1802.6062840316267 757.6523571738928 -1331.5533445634035 0 0 0
4245 283 15 0 -2045.7289635838983 1044.274883815976 -1336.6176690387465 0 0 0
4359 291 9 0 -2042.421115779928 1113.4189300936005 -1346.7533800833041 0 0 0
4239 283 9 0 -2081.71102950624 1104.2525226036412 -1324.4032822658453 0 0 0
4479 299 9 0 -2001.0624843944443 1083.2916252675018 -1315.930390192617 0 0 0
4476 299 6 -0.5 -1964.378355917638 1100.5048611831737 -1280.185713784927 0 0 0
4361 291 11 1 -2062.1558068686263 1144.5151798761258 -1293.2899971064085 0 0 0
2408 161 8 0 -2311.964921121599 1255.0513243466185 -1348.5151074500136 0 -1 0
4262 285 2 0 -345.42772132932464 1236.1038651465824 -1339.5610187801183 0 0 0
2407 161 7 2 -2284.198654813548 1493.9809587185332 -1334.0185041892687 0 -1 0
2406 161 6 -0.5 -2272.4077714688988 -1357.3837773770476 -1262.3195473796268 0 0 0
2415 161 15 0 -2347.941360028884 -1334.979052199577 -1253.2198520908232 0 0 0
2414 161 14 -1.5 -2247.651720440418 -1336.8743803297054 -1231.488239161371 0 0 0
2402 161 2 0 -2370.9561293599704 -1273.404344208528 -1216.984756289874 0 0 0
2404 161 4 0 -2391.8540093352026 -1228.147692457109 -1208.2456555710269 0 0 0
2656 178 1 0 -178.01855489272197 -700.9849219470667 -1239.4033356152054 0 0 0
920 62 5 0 -847.2863259578658 -451.7264751865817 -1240.6639310780135 0 0 0
5530 369 10 1 -2633.671628413262 -430.38750919591365 -1235.263645847064 0 0 0
2928 196 3 -1.5 -2567.2127598323746 -298.38211067957906 -1265.0278050956083 0 0 0
653 44 8 0 -185.4698496039725 -273.60753747584675 -1235.1288379423067 0 0 0
646 44 1 0 -142.48287697592693 -297.0121565476418 -1260.2479665260162 0 0 0
975 65 15 0 -2489.6758291042647 -193.98613351762253 -1235.1855982300442 0 0 0
966 65 6 -0.5 -2449.2294308195073 -221.93668508932757 -1268.685920133948 0 0 0
974 65 14 -1.5 -2439.5082243904994 -181.67222629061132 -1253.4740027394391 0 0 0
650 44 5 0 -190.3688390823129 -204.42848242067822 -1215.6537148231976 0 0 0
962 65 2 0 -2493.3373276571297 -125.60069295334422 -1224.280943549496 0 0 0
658 44 13 -0.5 -153.85900832720196 -80.87788165274277 -1257.6327963257909 0 0 0
648 44 3 -1.5 -179.29120445754154 -98.60096734607093 -1228.7395437545044 0 0 0
964 65 4 0 -2486.7078497729535 -68.21649739064898 -1224.0996960824589 0 0 0
2934 196 9 0 -2382.9810176464985 -74.99676759488375 -1274.4030238082473 0 0 0
2940 196 15 0 -2344.708071958344 -49.18118573344757 -1219.2361188244186 0 0 0
2931 196 6 -0.5 -2333.794737831709 -49.27038798981654 -1274.0526715681187 0 0 0
1718 115 8 0 -670.4708370710812 255.1798652449188 -1210.8511845292808 0 0 0
1715 115 5 0 -612.8807811169842 298.067452451352 -1267.7010618423067 0 0 0
1423 95 13 -0.5 -1577.7013167299417 437.3309427169716 -1261.2715972694139 0 0 0
1712 115 2 0 -382.45659023637603 554.0033168478724 -1222.7764442690784 0 0 0
1424 95 14 -1.5 -1839.4868514956522 704.6150607040087 -1258.9722786827258 0 0 0
1416 95 6 -0.5 -1802.7323933329994 680.082693050646 -1263.2543747014172 0 0 0
5164 345 4 0 -1995.772987943862 983.0413136479884 -1231.9551249820101 0 0 0
4472 299 2 0 -1984.10263708013 1033.5023950711752 -1224.289136451679 0 0 0
4485 299 15 0 -1983.214002177257 1049.416823922668 -1273.4320682896794 0 0 0
4351 291 1 0 -2331.444201399427 1191.4724626338245 -1206.9525891808346 0 0 0
4237 283 7 2 -2099.406780591714 1164.9229527608315 -1223.7685154047394 0 0 0
4241 283 11 1 -2099.9756763934693 1136.83249442872 -1270.1021901675183 0 0 0
4357 291 7 2 -2081.798955552544 1181.9165291985064 -1260.0250158068836 0 0 0
4484 299 14 -1.5 -1935.2226984003546 1132.7727839934864 -1271.9205057293966 0 0 0
4360 291 10 1 -2114.284592215066 1215.9054465692175 -1221.4156050916158 0 0 0
5381 359 11 1 -469.8650423209418 1261.3941927020292 -1206.4714547614615 0 0 0
4174 279 4 0 -384.3220290046534 1229.240300947302 -1206.847048782001 0 0 0
4275 285 15 0 -344.46905069902573 1250.5507860113996 -1267.7519652107246 0 0 0
5379 359 9 0 -416.92945278394484 1276.6812495448235 -1242.075878553746 0 0 0
5385 359 15 0 -384.60041215443914 1330.005663901591 -1222.804836172309 0 0 0
5384 359 14 -1.5 -325.2577620949005 1294.931695222819 -1263.2965594445582 0 0 0
5376 359 6 -0.5 -367.46020192866166 1296.6354550716433 -1250.3041362760082 0 0 0
4269 285 9 0 -374.46430325185156 1282.9322256833493 -1207.8911367175194 0 0 0
4266 285 6 -0.5 -319.64623272552524 1286.756465306534 -1218.6147472074344 0 0 0
4274 285 14 -1.5 -284.5811042264786 1303.1026625182062 -1239.641976031717 0 0 0
4261 285 1 0 -758.8911611757347 1381.3741663948094 -1235.3086000907447 0 0 0
3617 242 2 0 -99.585648037807 1422.626783124687 -1220.5754472713058 0 -1 0
3619 242 4 0 -66.03948324073245 1406.1114679802579 -1259.8051602476094 0 -1 0
3624 242 9 0 -180.2585043406076 -1464.7736448474293 -1150.067563453069 0 0 0
3621 242 6 -0.5 -127.87197420911211 -1485.9634370459387 -1152.6172080648823 0 0 0
3629 242 14 -1.5 -84.87513369242116 -1480.7024235036954 -1164.3858329186833 0 0 0
3856 258 1 0 -538.3906603887519 -1289.6280699807567 -1199.7451999257337 0 0 0
3863 258 8 0 -478.4601756185752 -1315.606674572008 -1187.1787413618442 0 0 0
3628 242 13 -0.5 -423.9064035426852 -1324.8819347799013 -1188.7799292770828 0 0 0
3618 242 3 -1.5 -427.49570250991667 -1337.9631405052662 -1147.8592347012145 0 0 0
2660 178 5 0 -166.41819391418753 -762.2015089910693 -1148.5818407653373 0 0 0
2662 178 7 2 -2.5935112045880273 -773.5535517558088 -1131.3258013168852 0 0 0
2663 178 8 0 -169.3093485825325 -722.6507042378751 -1184.3588892177977 0 0 0
1614 108 9 0 -1182.5505891121118 -526.6093480651173 -1142.6980603934353 0 0 0
1619 108 14 -1.5 -1100.424630076312 -527.9148467413938 -1187.8352262800875 0 0 0
5531 369 11 1 -2611.2663550640386 -466.2928812931458 -1127.8702660526108 0 0 0
252 17 12 0 -1233.266377694698 -505.9745907256672 -1154.7901100283652 0 0 0
1611 108 6 -0.5 -1138.98106250132 -513.618969579059 -1170.7992197316814 0 0 0
250 17 10 1 -1167.9155416453689 -493.34693385895656 -1172.2537018657747 0 0 0
1620 108 15 0 -1155.6936191024004 -469.9071323078137 -1128.2281296484405 0 0 0
247 17 7 2 -1106.9066320621039 -490.2793907412222 -1179.036364142093 0 0 0
251 17 11 1 -1053.3805761067363 -480.4867819670856 -1179.528167288736 0 0 0
249 17 9 0 -988.1954578807661 -476.3316612907807 -1173.1974729248489 0 0 0
246 17 6 -0.5 -938.8465118943923 -454.42449826434546 -1163.9011762383207 0 0 0
927 62 12 0 -860.8709188912524 -455.55588423953196 -1135.9389891857147 0 0 0
5527 369 7 2 -2616.859420739015 -448.9888802887433 -1179.1539758152935 0 0 0
245 17 5 0 -1266.4614025529636 -436.77691156058563 -1143.286690539573 0 0 0
254 17 14 -1.5 -910.3993302533917 -435.3144040663158 -1135.4688874361404 0 0 0
3121 209 1 0 -1340.2336708860678 -205.89353008951866 -1141.5626207075268 0 0 0
3128 209 8 0 -1270.837949079847 -171.7086009763134 -1127.5815144780393 0 0 0
657 44 12 0 -168.37872846822572 -120.4551081638137 -1185.0561859335244 0 0 0
655 44 10 1 -136.74379151627534 -125.37682794407701 -1128.3687516113578 0 0 0
2927 196 2 0 -2346.442972625256 -15.593208098854461 -1152.6796038119421 0 0 0
1711 115 1 0 -692.9885566409214 210.27792134994448 -1176.2049086539075 0 0 0
3016 202 1 0 -854.6767312948516 417.83603094197093 -1198.0860360927913 0 0 0
3023 202 8 0 -833.3899457832108 410.1937854916742 -1137.4005312211923 0 0 0
3030 202 15 0 -508.948808668123 443.9880071048909 -1158.6412150548501 0 0 0
3029 202 14 -1.5 -444.8663890429599 421.85410998713587 -1143.9059865606955 0 0 0
3017 202 2 0 -457.3162146731284 517.3288770726497 -1181.130462397273 0 0 0
3019 202 4 0 -415.49114413198527 562.8197814465241 -1186.609417814203 0 0 0
1714 115 4 0 -361.5836966286725 537.1566695089952 -1171.4801266954303 0 0 0
5162 345 2 0 -1973.9797166420444 952.4021623288268 -1183.3118377603228 0 0 0
4474 299 4 0 -2004.2731083197264 1000.2903252057554 -1178.9208389282473 0 0 0
5626 376 1 0 -1051.2768880547974 1152.6301356220795 -1130.665327577605 0 0 0
4177 279 7 2 -698.950912523022 1177.9001468974432 -1137.895007218541 0 0 0
4901 327 11 1 -602.0018221753404 1177.1074692147909 -1141.9658263499016 0 0 0
4181 279 11 1 -649.3999925264783 1191.2138379365838 -1156.3525382515206 0 0 0
4897 327 7 2 -648.8843676801368 1155.4453594914874 -1126.8943527145648 0 0 0
4358 291 8 0 -2295.124597478428 1248.3971581652552 -1193.0742476376392 0 0 0
4355 291 5 0 -2234.0585651450365 1251.3361290603445 -1196.088040629594 0 0 0
4362 291 12 0 -2141.320371286294 1245.8576319016474 -1175.077325394555 0 0 0
4353 291 3 -1.5 -2142.2337618972915 1273.8917751945253 -1134.2956856193487 0 0 0
4240 283 10 1 -2099.596251025376 1202.6079403067342 -1175.1893438471552 0 0 0
4175 279 5 0 -879.4485371213325 1245.0618229753036 -1135.4723595052271 0 0 0
5382 359 12 0 -632.4479620111799 1246.7443280510524 -1129.1615386654767 0 0 0
4179 279 9 0 -595.8746095637312 1223.3868587075337 -1171.627221418038 0 0 0
4899 327 9 0 -551.6691563936727 1209.4342793622645 -1167.9850188474122 0 0 0
5380 359 10 1 -571.3752561236462 1254.8158632796128 -1150.4096558701362 0 0 0
4176 279 6 -0.5 -560.822622074978 1263.7882842041074 -1164.6857629442732 0 0 0
4270 285 10 1 -531.6196793187581 1236.4631163049394 -1129.8426616105414 0 0 0
4904 327 14 -1.5 -482.27863192941953 1273.216030646742 -1191.8339858646536 0 0 0
4185 279 15 0 -505.35225336969415 1211.1076145682446 -1161.3419470531373 0 0 0
4896 327 6 -0.5 -519.4589925565062 1252.4601416824844 -1177.8168921291258 0 0 0
5377 359 7 2 -518.9430520678811 1260.4427934757098 -1182.9719609283482 0 0 0
4267 285 7 2 -477.3445398247288 1253.00672465234 -1153.2110643155036 0 0 0
4905 327 15 0 -459.6009024369745 1205.024390890754 -1133.5444560870142 0 0 0
4172 279 2 0 -440.9269892687313 1226.3238093188738 -1187.2040651414598 0 0 0
4271 285 11 1 -432.0870470820132 1271.1898434901457 -1177.5072261158443 0 0 0
4231 283 1 0 -2296.093404854985 1297.5648568492118 -1193.4469676634724 0 0 0
4238 283 8 0 -2270.72149365801 1278.4351415197414 -1128.9347735581655 0 0 0
4171 279 1 0 -963.0966510955874 1342.8579457101257 -1140.7621379320735 0 0 0
4178 279 8 0 -940.3784493250389 1283.7274638672227 -1155.6384393900005 0 0 0
4268 285 8 0 -733.2691193428528 1349.7572619165621 -1195.2228770836603 0 0 0
4265 285 5 0 -669.5292186861103 1305.526178675517 -1187.116376989433 0 0 0
4184 279 14 -1.5 -521.764775824608 1279.8400331130576 -1150.718282550766 0 0 0
5372 359 2 0 -377.2467880437838 1401.8726437993155 -1198.8453477587493 0 0 0
5374 359 4 0 -353.01985112355686 1443.409832119191 -1153.5427520136266 0 0 0
3630 242 15 0 -156.80501933736008 1483.4460668431145 -1187.9720943143311 0 -1 0
3616 242 1 0 -575.7380077393559 -1483.0096176186864 -1065.6627277174653 0 0 0
3626 242 11 1 -239.8194096806227 -1449.7996364837036 -1124.5569492119566 0 0 0
3622 242 7 2 -291.1682560794794 -1433.5692267817062 -1115.3100879972935 0 0 0
3620 242 5 0 -479.2802311970503 -1411.8198144592072 -1080.3630280593552 0 0 0
3627 242 12 0 -396.89467902304546 -1365.2529307072618 -1117.8176806498159 0 0 0
3867 258 12 0 -387.7578964384413 -1356.0181156243002 -1070.0042880107699 0 0 0
3625 242 10 1 -344.82024589253626 -1402.315287288803 -1110.5775696208298 0 0 0
3868 258 13 -0.5 -308.7562495427083 -1352.8420824064665 -1094.02154829491 0 0 0
3858 258 3 -1.5 -350.52155505922616 -1357.1558480589529 -1101.8147818469238 0 0 0
3860 258 5 0 -438.9472844097469 -1315.136168003254 -1105.40934189985 0 0 0
1318 88 13 -0.5 -163.68806962527734 -877.3921577587679 -1064.3342327259252 0 0 0
2658 178 3 -1.5 -147.97934881129848 -816.5199493602647 -1070.2117826012245 0 0 0
2667 178 12 0 -118.81725974300453 -781.7654236085431 -1093.0052133452873 0 0 0
2665 178 10 1 -62.06064009731596 -776.6435269863426 -1115.0425385705366 0 0 0
1610 108 5 0 -1444.3814204993332 -678.0589290693665 -1110.847242736781 0 0 0
1617 108 12 0 -1328.057629146373 -704.1716316512342 -1068.669122876496 0 0 0
1606 108 1 0 -1577.063335788626 -671.1774580344473 -1124.9342780660259 0 0 0
1613 108 8 0 -1516.1382405590005 -658.4731798630883 -1122.3149817838214 0 0 0
1615 108 10 1 -1294.4150264816833 -654.2852023843544 -1079.1176567394189 0 0 0
1612 108 7 2 -1261.6118831733822 -604.7601945294373 -1096.2561199789423 0 0 0
1616 108 11 1 -1230.653954366378 -564.7744733998777 -1117.374406717002 0 0 0
243 17 3 -1.5 -1254.820825184235 -534.724579795246 -1121.7299776128991 0 0 0
253 17 13 -0.5 -1241.8592634172596 -573.9020724354826 -1110.1799032717893 0 0 0
5529 369 9 0 -2617.04383130327 -473.9483763002656 -1061.2574555210722 0 0 0
918 62 3 -1.5 -906.7429120836609 -475.37595089777716 -1122.033918149712 0 0 0
255 17 15 0 -940.5460338369138 -510.95979665533036 -1119.6412918125427 0 0 0
928 62 13 -0.5 -944.6349919279355 -456.53191258593876 -1119.6237725758438 0 0 0
1607 108 2 0 -1145.0033201416807 -384.90777345679334 -1106.1138584975276 0 0 0
925 62 10 1 -803.4875816825271 -435.59689855017643 -1112.576050015484 0 0 0
922 62 7 2 -751.9404556218545 -407.8701185516792 -1091.6431369677414 0 0 0
3388 226 13 -0.5 -748.3242883751923 -394.6506091585644 -1053.7384529491444 0 0 0
926 62 11 1 -706.7471063757266 -388.33254164421646 -1072.2012688035613 0 0 0
5069 338 14 -1.5 -723.6802167117031 -379.46200042459805 -1109.705131278404 0 0 0
3378 226 3 -1.5 -709.9410372340825 -381.1638281563766 -1066.3384853305356 0 0 0
930 62 15 0 -558.1858463509446 -394.2292879104896 -1078.1663542830381 0 0 0
917 62 2 0 -500.3619086549217 -428.46633875402915 -1104.9272001110428 0 0 0
919 62 4 0 -435.84182294763474 -433.9018947045891 -1111.9068625718942 0 0 0
248 17 8 0 -1309.9863295684822 -357.5599178332066 -1114.3479319695252 0 0 0
241 17 1 0 -1314.4686613297047 -335.95970599776825 -1059.4749161042425 0 0 0
1609 108 4 0 -1124.4890746244123 -335.15753211409844 -1076.3296266929997 0 0 0
5064 338 9 0 -780.9455006155938 -328.6730837150012 -1052.0878920358475 0 0 0
5061 338 6 -0.5 -739.9645667108307 -355.0034079550061 -1076.7762022029385 0 0 0
3387 226 12 0 -686.3058427506332 -343.4075723152556 -1050.3546470021809 0 0 0
3380 226 5 0 -744.0389422790735 -281.10190092264406 -1050.112109593542 0 0 0
3127 209 7 2 -1074.5475780059094 -188.2414265477149 -1052.2289408415252 0 0 0
3135 209 15 0 -905.5352353111973 -220.57526735018456 -1051.272965482565 0 0 0
5438 363 8 0 -579.5846082921393 -195.5129267589134 -1050.173571126936 0 0 0
3125 209 5 0 -1238.9943864947359 -147.18801544780973 -1094.539343845759 0 0 0
3132 209 12 0 -1166.5506875318697 -104.74287757939437 -1071.1889520275624 0 0 0
3130 209 10 1 -1120.106739935344 -145.95020210733043 -1057.664701667402 0 0 0
5431 363 1 0 -549.1759564713997 -136.9220662017124 -1093.5390926018567 0 0 0
652 44 7 2 -102.2849542169142 -124.8242118504508 -1076.888807811539 0 0 0
2929 196 4 0 -2368.201737310785 -1.6893495428563197 -1093.7760958289698 0 0 0
3123 209 3 -1.5 -1199.2298785401488 -72.50783122380096 -1055.0855014491322 0 0 0
3133 209 13 -0.5 -1196.4515534875886 -29.200405500222306 -1052.572973548997 0 0 0
1291 87 1 0 -1273.953409348614 289.85696005360114 -1123.9490154775092 0 0 0
1298 87 8 0 -1226.3189551271746 274.8633011227911 -1069.1269527517031 0 0 0
994 67 4 0 -786.2443100837379 299.08361813986727 -1105.7984621636856 0 0 0
1294 87 4 0 -791.0037626435338 297.2771236644792 -1063.217618441189 0 0 0
992 67 2 0 -837.083262127096 303.17648196015506 -1072.2208076772035 0 0 0
3020 202 5 0 -804.089253766748 372.32599156234437 -1074.3191420803048 0 0 0
3025 202 10 1 -687.3356602814348 336.41751623662503 -1060.1575564411783 0 0 0
3022 202 7 2 -628.6737966032649 348.3204325908957 -1074.081706706944 0 0 0
2391 160 6 -0.5 -663.5779287171515 352.76042907451233 -1055.481950795101 0 0 0
3026 202 11 1 -577.1634241986754 363.8393664107878 -1080.8302226462715 0 0 0
3109 208 4 0 -925.4423268577883 386.11690336119204 -1070.8245405774487 0 0 0
2399 160 14 -1.5 -642.1011996138981 387.6317786369306 -1070.7083488513558 0 0 0
3024 202 9 0 -521.707616779084 394.8448486654213 -1091.0875018278782 0 0 0
3021 202 6 -0.5 -471.0231627364157 403.86310849509664 -1112.99952730058 0 0 0
2387 160 2 0 -669.9245956693269 493.54705137104236 -1098.0983763308668 0 0 0
2389 160 4 0 -652.3528179019809 552.2069013558009 -1101.1140676180385 0 0 0
4663 311 13 -0.5 -1185.118453839369 702.0927770741117 -1083.1475741573142 0 0 0
4653 311 3 -1.5 -1170.8142175026753 739.7836215535881 -1097.7737294234637 0 0 0
4662 311 12 0 -1156.2983602391055 775.255334737724 -1067.4562478134167 0 0 0
4660 311 10 1 -1122.854357295482 829.1589176689466 -1056.4215763717218 0 0 0
4093 273 13 -0.5 -1084.8596633150116 872.389381107752 -1081.8733902780107 0 0 0
5175 345 15 0 -1995.0085714787717 902.4994953914081 -1082.6509637304875 0 0 0
4083 273 3 -1.5 -1057.836307162912 904.2190331042692 -1090.7107062812008 0 0 0
4092 273 12 0 -1023.0912406700713 920.6298633478783 -1057.7538777688094 0 0 0
4665 311 15 0 -962.4703208121613 992.7077352875333 -1069.106225145967 0 0 0
5359 358 4 0 -2979.2476192861823 1063.5717490232807 -1105.7111520166593 1 0 0
4652 311 2 0 -882.3523906020099 1051.7164706761994 -1088.0641317308705 0 0 0
4654 311 4 0 -833.7786917281043 1081.0524467074847 -1072.7951404780374 0 0 0
4903 327 13 -0.5 -847.8116300466253 1119.4813679612241 -1087.9646432942568 0 0 0
4173 279 3 -1.5 -840.2996654350517 1122.120952910284 -1071.3318697410168 0 0 0
4893 327 3 -1.5 -814.8664176794905 1101.829570171336 -1108.6239416369306 0 0 0
4902 327 12 0 -766.259285218989 1109.9282090588767 -1098.4083536095563 0 0 0
5633 376 8 0 -1008.3529319431221 1150.5295567806506 -1091.2232259933648 0 0 0
2176 146 1 0 -841.7271998284261 1159.3731231418253 -1051.1263935680463 0 0 0
5632 376 7 2 -816.4207227073867 1127.7337880716761 -1063.5784462543916 0 0 0
4182 279 12 0 -815.6395383664095 1156.6511068277484 -1101.5169713202474 0 0 0
5636 376 11 1 -775.0250866494417 1157.7763472826093 -1079.7200852962335 0 0 0
4180 279 10 1 -755.8599695357784 1166.961160674096 -1117.7704492283026 0 0 0
4900 327 10 1 -706.5784582262628 1138.4867345668908 -1110.9257486104132 0 0 0
5634 376 9 0 -717.2239120458079 1183.5288593724158 -1096.2892151720841 0 0 0
5640 376 15 0 -689.8863243525005 1196.115338298048 -1052.304755347587 0 0 0
5383 359 13 -0.5 -669.735574950134 1178.9920606303265 -1102.0841950287281 0 0 0
4263 285 3 -1.5 -626.0435354288164 1182.5969432957406 -1117.3982376331937 0 0 0